 Entering Gaussian System, Link 0=g09
 Initial command:
 /global/software/gaussian/g09.d01/l1.exe "/scratch/7529171.yak.local/Gau-23107.inp" -scrdir="/scratch/7529171.yak.local/"
 Entering Link 1 = /global/software/gaussian/g09.d01/l1.exe PID=     23108.
  
 Copyright (c) 1988,1990,1992,1993,1995,1998,2003,2009,2013,
            Gaussian, Inc.  All Rights Reserved.
  
 This is part of the Gaussian(R) 09 program.  It is based on
 the Gaussian(R) 03 system (copyright 2003, Gaussian, Inc.),
 the Gaussian(R) 98 system (copyright 1998, Gaussian, Inc.),
 the Gaussian(R) 94 system (copyright 1995, Gaussian, Inc.),
 the Gaussian 92(TM) system (copyright 1992, Gaussian, Inc.),
 the Gaussian 90(TM) system (copyright 1990, Gaussian, Inc.),
 the Gaussian 88(TM) system (copyright 1988, Gaussian, Inc.),
 the Gaussian 86(TM) system (copyright 1986, Carnegie Mellon
 University), and the Gaussian 82(TM) system (copyright 1983,
 Carnegie Mellon University). Gaussian is a federally registered
 trademark of Gaussian, Inc.
  
 This software contains proprietary and confidential information,
 including trade secrets, belonging to Gaussian, Inc.
  
 This software is provided under written license and may be
 used, copied, transmitted, or stored only in accord with that
 written license.
  
 The following legend is applicable only to US Government
 contracts under FAR:
  
                    RESTRICTED RIGHTS LEGEND
  
 Use, reproduction and disclosure by the US Government is
 subject to restrictions as set forth in subparagraphs (a)
 and (c) of the Commercial Computer Software - Restricted
 Rights clause in FAR 52.227-19.
  
 Gaussian, Inc.
 340 Quinnipiac St., Bldg. 40, Wallingford CT 06492
  
  
 ---------------------------------------------------------------
 Warning -- This program may not be used in any manner that
 competes with the business of Gaussian, Inc. or will provide
 assistance to any competitor of Gaussian, Inc.  The licensee
 of this program is prohibited from giving any competitor of
 Gaussian, Inc. access to this program.  By using this program,
 the user acknowledges that Gaussian, Inc. is engaged in the
 business of creating and licensing software in the field of
 computational chemistry and represents and warrants to the
 licensee that it is not a competitor of Gaussian, Inc. and that
 it will not use this program in any manner prohibited above.
 ---------------------------------------------------------------
  

 Cite this work as:
 Gaussian 09, Revision D.01,
 M. J. Frisch, G. W. Trucks, H. B. Schlegel, G. E. Scuseria, 
 M. A. Robb, J. R. Cheeseman, G. Scalmani, V. Barone, B. Mennucci, 
 G. A. Petersson, H. Nakatsuji, M. Caricato, X. Li, H. P. Hratchian, 
 A. F. Izmaylov, J. Bloino, G. Zheng, J. L. Sonnenberg, M. Hada, 
 M. Ehara, K. Toyota, R. Fukuda, J. Hasegawa, M. Ishida, T. Nakajima, 
 Y. Honda, O. Kitao, H. Nakai, T. Vreven, J. A. Montgomery, Jr., 
 J. E. Peralta, F. Ogliaro, M. Bearpark, J. J. Heyd, E. Brothers, 
 K. N. Kudin, V. N. Staroverov, T. Keith, R. Kobayashi, J. Normand, 
 K. Raghavachari, A. Rendell, J. C. Burant, S. S. Iyengar, J. Tomasi, 
 M. Cossi, N. Rega, J. M. Millam, M. Klene, J. E. Knox, J. B. Cross, 
 V. Bakken, C. Adamo, J. Jaramillo, R. Gomperts, R. E. Stratmann, 
 O. Yazyev, A. J. Austin, R. Cammi, C. Pomelli, J. W. Ochterski, 
 R. L. Martin, K. Morokuma, V. G. Zakrzewski, G. A. Voth, 
 P. Salvador, J. J. Dannenberg, S. Dapprich, A. D. Daniels, 
 O. Farkas, J. B. Foresman, J. V. Ortiz, J. Cioslowski, 
 and D. J. Fox, Gaussian, Inc., Wallingford CT, 2013.
 
 ******************************************
 Gaussian 09:  ES64L-G09RevD.01 24-Apr-2013
                13-Jun-2014 
 ******************************************
 %nprocshared=4
 Will use up to    4 processors via shared memory.
 %mem=4GB
 %chk=cisa_GS.chk
 ------------------------------------------------------
 #P Geom=AllCheck Frequency=(ReadFC,FCHT,SaveNM) NoSymm
 ------------------------------------------------------
 1/29=7,38=1/1;
 2/12=2,15=1,40=1/2;
 7/8=1,25=11,30=1,71=20,92=1/16,18;
 99/5=2,8=200000/99;
 Leave Link    1 at Fri Jun 13 22:59:30 2014, MaxMem=   536870912 cpu:         0.3
 (Enter /global/software/gaussian/g09.d01/l101.exe)
 Structure from the checkpoint file:  "cisa_GS.chk"
 --------------
 B3LYP Vanadium
 --------------
 Charge =  0 Multiplicity = 1
 Redundant internal coordinates found in file.
 V,0,0.0023689515,-1.9098905045,0.1477619899
 O,0,0.0342347341,-3.3527622649,-0.5426014064
 O,0,1.2456546775,-1.0118424937,-0.7735905847
 O,0,-1.6821431966,-1.3865948363,-0.1934431511
 O,0,0.4680379074,-2.3302409976,1.8065618855
 N,0,-0.022508597,0.2749108657,1.3896776112
 C,0,2.1525820993,0.0114814401,-0.6760986056
 C,0,3.4183654761,-0.177803486,-1.2678369932
 C,0,4.3616337172,0.8436740172,-1.1841103085
 H,0,5.3404131565,0.7264006334,-1.6302534314
 C,0,4.0548346225,2.0261572736,-0.5212558435
 C,0,2.8136462009,2.2141964756,0.0671028349
 H,0,2.604158962,3.1455320673,0.5773169975
 C,0,1.8463934701,1.2088337423,-0.0091790235
 C,0,0.4714342234,1.4350024979,0.5711806033
 H,0,-0.2605831237,1.5686323495,-0.2328685982
 H,0,0.4762534414,2.3542158736,1.178269041
 C,0,-1.4203745686,0.5549190925,1.8752381143
 H,0,-1.4228657338,1.4557117079,2.509276492
 H,0,-1.7233042893,-0.2993754618,2.4911826363
 C,0,-2.3990049137,0.7213245564,0.7404854569
 C,0,-3.246155541,1.8290444128,0.6710510576
 H,0,-3.1923283315,2.6176270445,1.4104950684
 C,0,-4.1729252458,1.9201072995,-0.3563068092
 C,0,-4.2717510389,0.9257182436,-1.3231050745
 H,0,-5.0052680323,1.0285859156,-2.112021912
 C,0,-3.4354826076,-0.1876226647,-1.2761385076
 C,0,-2.492552382,-0.285154148,-0.232888779
 C,0,0.8822049941,-0.0420200522,2.5368360382
 H,0,0.7566705203,0.6637173747,3.3725492435
 H,0,1.9067107205,0.0265780159,2.1640420716
 C,0,0.592229694,-1.4831546232,2.9791950082
 H,0,1.4083121623,-1.8691836708,3.5988440974
 H,0,-0.3398530613,-1.5470209145,3.5530021536
 C,0,3.7029503156,-1.4851282757,-1.9684289892
 H,0,3.6283278084,-2.3210362019,-1.2633459652
 H,0,4.7021859875,-1.4816322254,-2.4111192155
 H,0,2.9615001804,-1.663980433,-2.7542645896
 C,0,-3.5001665028,-1.2943826368,-2.3014885724
 H,0,-2.5516164688,-1.3665844181,-2.8462163375
 H,0,-4.3071571418,-1.1181312714,-3.0171316596
 H,0,-3.6594122039,-2.2592232032,-1.808555991
 F,0,-5.0026014566,3.0094326173,-0.4217831059
 F,0,4.9956004138,3.019761267,-0.4426749468
 Recover connectivity data from disk.
 NAtoms=     44 NQM=       44 NQMF=       0 NMMI=      0 NMMIF=      0
                NMic=       0 NMicF=      0.
                    Isotopes and Nuclear Properties:
 (Nuclear quadrupole moments (NQMom) in fm**2, nuclear magnetic moments (NMagM)
  in nuclear magnetons)

  Atom         1           2           3           4           5           6           7           8           9          10
 IAtWgt=          51          16          16          16          16          14          12          12          12           1
 AtmWgt=  50.9439625  15.9949146  15.9949146  15.9949146  15.9949146  14.0030740  12.0000000  12.0000000  12.0000000   1.0078250
 NucSpn=           7           0           0           0           0           2           0           0           0           1
 AtZEff= -10.5800000  -5.6000000  -5.6000000  -5.6000000  -5.6000000  -4.5500000  -3.6000000  -3.6000000  -3.6000000  -1.0000000
 NQMom=   -5.2000000   0.0000000   0.0000000   0.0000000   0.0000000   2.0440000   0.0000000   0.0000000   0.0000000   0.0000000
 NMagM=    5.1514000   0.0000000   0.0000000   0.0000000   0.0000000   0.4037610   0.0000000   0.0000000   0.0000000   2.7928460
 AtZNuc=  23.0000000   8.0000000   8.0000000   8.0000000   8.0000000   7.0000000   6.0000000   6.0000000   6.0000000   1.0000000

  Atom        11          12          13          14          15          16          17          18          19          20
 IAtWgt=          12          12           1          12          12           1           1          12           1           1
 AtmWgt=  12.0000000  12.0000000   1.0078250  12.0000000  12.0000000   1.0078250   1.0078250  12.0000000   1.0078250   1.0078250
 NucSpn=           0           0           1           0           0           1           1           0           1           1
 AtZEff=  -3.6000000  -3.6000000  -1.0000000  -3.6000000  -3.6000000  -1.0000000  -1.0000000  -3.6000000  -1.0000000  -1.0000000
 NQMom=    0.0000000   0.0000000   0.0000000   0.0000000   0.0000000   0.0000000   0.0000000   0.0000000   0.0000000   0.0000000
 NMagM=    0.0000000   0.0000000   2.7928460   0.0000000   0.0000000   2.7928460   2.7928460   0.0000000   2.7928460   2.7928460
 AtZNuc=   6.0000000   6.0000000   1.0000000   6.0000000   6.0000000   1.0000000   1.0000000   6.0000000   1.0000000   1.0000000

  Atom        21          22          23          24          25          26          27          28          29          30
 IAtWgt=          12          12           1          12          12           1          12          12          12           1
 AtmWgt=  12.0000000  12.0000000   1.0078250  12.0000000  12.0000000   1.0078250  12.0000000  12.0000000  12.0000000   1.0078250
 NucSpn=           0           0           1           0           0           1           0           0           0           1
 AtZEff=  -3.6000000  -3.6000000  -1.0000000  -3.6000000  -3.6000000  -1.0000000  -3.6000000  -3.6000000  -3.6000000  -1.0000000
 NQMom=    0.0000000   0.0000000   0.0000000   0.0000000   0.0000000   0.0000000   0.0000000   0.0000000   0.0000000   0.0000000
 NMagM=    0.0000000   0.0000000   2.7928460   0.0000000   0.0000000   2.7928460   0.0000000   0.0000000   0.0000000   2.7928460
 AtZNuc=   6.0000000   6.0000000   1.0000000   6.0000000   6.0000000   1.0000000   6.0000000   6.0000000   6.0000000   1.0000000

  Atom        31          32          33          34          35          36          37          38          39          40
 IAtWgt=           1          12           1           1          12           1           1           1          12           1
 AtmWgt=   1.0078250  12.0000000   1.0078250   1.0078250  12.0000000   1.0078250   1.0078250   1.0078250  12.0000000   1.0078250
 NucSpn=           1           0           1           1           0           1           1           1           0           1
 AtZEff=  -1.0000000  -3.6000000  -1.0000000  -1.0000000  -3.6000000  -1.0000000  -1.0000000  -1.0000000  -3.6000000  -1.0000000
 NQMom=    0.0000000   0.0000000   0.0000000   0.0000000   0.0000000   0.0000000   0.0000000   0.0000000   0.0000000   0.0000000
 NMagM=    2.7928460   0.0000000   2.7928460   2.7928460   0.0000000   2.7928460   2.7928460   2.7928460   0.0000000   2.7928460
 AtZNuc=   1.0000000   6.0000000   1.0000000   1.0000000   6.0000000   1.0000000   1.0000000   1.0000000   6.0000000   1.0000000

  Atom        41          42          43          44
 IAtWgt=           1           1          19          19
 AtmWgt=   1.0078250   1.0078250  18.9984033  18.9984033
 NucSpn=           1           1           1           1
 AtZEff=  -1.0000000  -1.0000000  -6.7500000  -6.7500000
 NQMom=    0.0000000   0.0000000   0.0000000   0.0000000
 NMagM=    2.7928460   2.7928460   2.6288670   2.6288670
 AtZNuc=   1.0000000   1.0000000   9.0000000   9.0000000
 Leave Link  101 at Fri Jun 13 22:59:30 2014, MaxMem=   536870912 cpu:         0.8
 (Enter /global/software/gaussian/g09.d01/l202.exe)
                          Input orientation:                          
 ---------------------------------------------------------------------
 Center     Atomic      Atomic             Coordinates (Angstroms)
 Number     Number       Type             X           Y           Z
 ---------------------------------------------------------------------
      1         23           0        0.002369   -1.909891    0.147762
      2          8           0        0.034235   -3.352762   -0.542601
      3          8           0        1.245655   -1.011842   -0.773591
      4          8           0       -1.682143   -1.386595   -0.193443
      5          8           0        0.468038   -2.330241    1.806562
      6          7           0       -0.022509    0.274911    1.389678
      7          6           0        2.152582    0.011481   -0.676099
      8          6           0        3.418365   -0.177803   -1.267837
      9          6           0        4.361634    0.843674   -1.184110
     10          1           0        5.340413    0.726401   -1.630253
     11          6           0        4.054835    2.026157   -0.521256
     12          6           0        2.813646    2.214196    0.067103
     13          1           0        2.604159    3.145532    0.577317
     14          6           0        1.846393    1.208834   -0.009179
     15          6           0        0.471434    1.435002    0.571181
     16          1           0       -0.260583    1.568632   -0.232869
     17          1           0        0.476253    2.354216    1.178269
     18          6           0       -1.420375    0.554919    1.875238
     19          1           0       -1.422866    1.455712    2.509276
     20          1           0       -1.723304   -0.299375    2.491183
     21          6           0       -2.399005    0.721325    0.740485
     22          6           0       -3.246156    1.829044    0.671051
     23          1           0       -3.192328    2.617627    1.410495
     24          6           0       -4.172925    1.920107   -0.356307
     25          6           0       -4.271751    0.925718   -1.323105
     26          1           0       -5.005268    1.028586   -2.112022
     27          6           0       -3.435483   -0.187623   -1.276139
     28          6           0       -2.492552   -0.285154   -0.232889
     29          6           0        0.882205   -0.042020    2.536836
     30          1           0        0.756671    0.663717    3.372549
     31          1           0        1.906711    0.026578    2.164042
     32          6           0        0.592230   -1.483155    2.979195
     33          1           0        1.408312   -1.869184    3.598844
     34          1           0       -0.339853   -1.547021    3.553002
     35          6           0        3.702950   -1.485128   -1.968429
     36          1           0        3.628328   -2.321036   -1.263346
     37          1           0        4.702186   -1.481632   -2.411119
     38          1           0        2.961500   -1.663980   -2.754265
     39          6           0       -3.500167   -1.294383   -2.301489
     40          1           0       -2.551616   -1.366584   -2.846216
     41          1           0       -4.307157   -1.118131   -3.017132
     42          1           0       -3.659412   -2.259223   -1.808556
     43          9           0       -5.002601    3.009433   -0.421783
     44          9           0        4.995600    3.019761   -0.442675
 ---------------------------------------------------------------------
                    Distance matrix (angstroms):
                    1          2          3          4          5
     1  V    0.000000
     2  O    1.599842   0.000000
     3  O    1.789173   2.645902   0.000000
     4  O    1.796619   2.633188   3.008157   0.000000
     5  O    1.773460   2.598519   3.000008   3.084439   0.000000
     6  N    2.513231   4.110588   2.818457   2.832183   2.683513
     7  C    2.998972   3.977858   1.370844   4.110072   3.805911
     8  C    4.083268   4.696666   2.379196   5.350765   4.773819
     9  C    5.325335   6.062012   3.649766   6.517880   5.846191
    10  H    6.213380   6.780714   4.530166   7.472983   6.700358
    11  C    5.688808   6.715538   4.145432   6.683356   6.104265
    12  C    4.991781   6.252031   3.684113   5.765909   5.401806
    13  H    5.701853   7.077186   4.577581   6.285430   6.004844
    14  C    3.626499   4.937268   2.424173   4.384150   4.209730
    15  C    3.404059   4.935012   2.897391   3.630972   3.962731
    16  H    3.509152   4.939937   3.036442   3.279597   4.459975
    17  H    4.412382   5.977154   3.966369   4.531439   4.726410
    18  C    3.329213   4.819939   4.071701   2.849112   3.448908
    19  H    4.351474   5.878650   4.897657   3.930728   4.289844
    20  H    3.326158   4.649297   4.470019   2.896715   3.065143
    21  C    3.611262   4.915806   4.310434   2.414423   4.320707
    22  C    4.980600   6.251802   5.507630   3.678834   5.690718
    23  H    5.683221   7.061929   6.135061   4.570237   6.167378
    24  C    5.688238   6.748189   6.175068   4.143042   6.654472
    25  C    5.335937   6.120138   5.873489   3.650890   6.546884
    26  H    6.230385   6.859729   6.710349   4.534005   7.522905
    27  C    4.100308   4.753433   4.779638   2.384106   5.415840
    28  C    3.001549   3.986326   3.846378   1.368024   4.136041
    29  C    3.157646   4.600326   3.468656   3.979722   2.437374
    30  H    4.194244   5.655301   4.498564   4.782039   3.391078
    31  H    3.382575   4.717205   3.185121   4.520472   2.784271
    32  C    2.923534   4.026145   3.838294   3.904834   1.451912
    33  H    3.726701   4.608760   4.458663   4.915816   2.075805
    34  H    3.441577   4.491616   4.638928   3.982880   2.077541
    35  C    4.284039   4.356663   2.773074   5.670936   5.042760
    36  H    3.912524   3.808075   2.762423   5.497179   4.405888
    37  H    5.368385   5.364910   3.853545   6.759200   6.036305
    38  H    4.151950   4.038851   2.700459   5.310195   5.240458
    39  C    4.318036   4.452258   4.993708   2.785241   5.804802
    40  H    3.972648   3.992264   4.340609   2.791700   5.629857
    41  H    5.405132   5.473989   5.989866   3.864711   6.894905
    42  H    4.166276   4.054812   5.165926   2.698085   5.487255
    43  F    7.040870   8.115531   7.438758   5.513859   7.962759
    44  F    7.041480   8.076769   5.515925   8.004396   7.360735
                    6          7          8          9         10
     6  N    0.000000
     7  C    3.011286   0.000000
     8  C    4.371150   1.410032   0.000000
     9  C    5.115523   2.414649   1.392904   0.000000
    10  H    6.171285   3.403496   2.154808   1.082038   0.000000
    11  C    4.831486   2.775150   2.412451   1.389881   2.138213
    12  C    3.681550   2.416880   2.805248   2.416636   3.388083
    13  H    3.974893   3.405473   3.887426   3.389675   4.267628
    14  C    2.514320   1.404345   2.445011   2.800043   3.881855
    15  C    1.503240   2.531477   3.829821   4.308639   5.390305
    16  H    2.088792   2.905949   4.201888   4.774444   5.833798
    17  H    2.148713   3.425954   4.588091   4.791529   5.847874
    18  C    1.506055   4.423874   5.816288   6.547871   7.617488
    19  H    2.146810   5.001624   6.353934   6.890292   7.963011
    20  H    2.106140   5.015057   6.370383   7.200056   8.242242
    21  C    2.503691   4.819495   6.219613   7.030311   8.094382
    22  C    3.650158   5.853607   7.225134   7.892467   8.957733
    23  H    3.941638   6.301899   7.660886   8.181762   9.253679
    24  C    4.793860   6.614920   7.928418   8.641913   9.672202
    25  C    5.083188   6.521235   7.769087   8.634893   9.619136
    26  H    6.136597   7.370970   8.551352   9.414566  10.361300
    27  C    4.355331   5.623714   6.853860   7.865562   8.830469
    28  C    3.007908   4.675650   6.001799   7.011344   8.020675
    29  C    1.494966   3.455383   4.574504   5.170718   6.150669
    30  H    2.165657   4.331920   5.415345   5.813028   6.785474
    31  H    2.093609   2.850803   3.755618   4.231361   5.164953
    32  C    2.448523   4.246152   5.265764   6.079116   6.976704
    33  H    3.394820   4.729268   5.530431   6.241663   7.038603
    34  H    2.846070   5.150384   6.264140   7.089403   8.018729
    35  C    5.315417   2.512688   1.510270   2.544079   2.772455
    36  H    5.206350   2.821936   2.153497   3.249524   3.514645
    37  H    6.313021   3.426392   2.157605   2.651146   2.427446
    38  H    5.462222   2.789318   2.151026   3.273238   3.554792
    39  C    5.308625   6.025010   7.083874   8.223608   9.093403
    40  H    5.199393   5.360780   6.288495   7.445862   8.254895
    41  H    6.302281   6.963095   7.976713   9.075053   9.919745
    42  H    5.466041   6.341753   7.397271   8.622939   9.483807
    43  F    5.963248   7.762025   9.043615   9.641605  10.660703
    44  F    6.006092   4.145719   3.659642   2.384742   2.605521
                   11         12         13         14         15
    11  C    0.000000
    12  C    1.386389   0.000000
    13  H    2.136427   1.082400   0.000000
    14  C    2.409866   1.397194   2.160784   0.000000
    15  C    3.792577   2.519364   2.733947   1.509464   0.000000
    16  H    4.349175   3.155570   3.368941   2.149149   1.095537
    17  H    3.975204   2.591853   2.348469   2.144578   1.101605
    18  C    6.155131   4.893821   4.959107   3.827585   2.460499
    19  H    6.286075   4.948489   4.775446   4.134202   2.710169
    20  H    6.918799   5.725218   5.852966   4.611859   3.392838
    21  C    6.704224   5.463867   5.561929   4.338556   2.962671
    22  C    7.400332   6.101991   5.997342   5.175078   3.739748
    23  H    7.523488   6.167592   5.879807   5.421152   3.940331
    24  C    8.230096   7.005565   6.949978   6.071129   4.760844
    25  C    8.437177   7.334556   7.471099   6.264044   5.132786
    26  H    9.252629   8.203029   8.343703   7.169359   6.112202
    27  C    7.847007   6.828224   7.143003   5.608341   4.616221
    28  C    6.949359   5.873031   6.196976   4.594398   3.520040
    29  C    4.867737   3.862714   4.118899   2.996079   2.492816
    30  H    5.281652   4.190598   4.169645   3.594542   2.919573
    31  H    3.977886   3.163125   3.568194   2.474724   2.565324
    32  C    6.046326   5.204361   5.589420   4.213088   3.785336
    33  H    6.257235   5.578723   5.975538   4.762766   4.578442
    34  H    6.977138   6.020200   6.288240   5.006350   4.294405
    35  C    3.814087   4.315004   5.397331   3.813515   5.041773
    36  H    4.430654   4.796054   5.858356   4.148278   5.238253
    37  H    4.036736   4.833975   5.894329   4.600378   5.941391
    38  H    4.449587   4.798149   5.861616   4.126987   5.182925
    39  C    8.442349   7.601617   8.078561   6.332968   5.610293
    40  H    7.782116   7.077815   7.659099   5.833014   5.354094
    41  H    9.275713   8.445280   8.880607   7.233860   6.498416
    42  H    8.918028   8.088885   8.610232   6.751227   6.031114
    43  F    9.111195   7.871794   7.673300   7.093739   5.781857
    44  F    1.370571   2.381120   2.602920   3.658535   4.899739
                   16         17         18         19         20
    16  H    0.000000
    17  H    1.775212   0.000000
    18  C    2.610909   2.705630   0.000000
    19  H    2.980438   2.487075   1.101562   0.000000
    20  H    3.612404   3.688271   1.095889   1.780708   0.000000
    21  C    2.497638   3.335431   1.507671   2.149603   2.136198
    22  C    3.130260   3.793337   2.531193   2.615881   3.187809
    23  H    3.520819   3.685350   2.758726   2.385030   3.440177
    24  C    3.930037   4.915103   3.797376   3.998757   4.362905
    25  C    4.206117   5.553470   4.300842   4.804601   4.748076
    26  H    5.131754   6.529195   5.382756   5.862802   5.807259
    27  C    3.775292   5.271313   3.813555   4.591355   4.139656
    28  C    2.901415   4.215620   2.509878   3.419695   2.830638
    29  C    3.401680   2.784322   2.468992   2.749056   2.618586
    30  H    3.853922   2.784113   2.644485   2.474444   2.802611
    31  H    3.580541   2.904454   3.381131   3.639738   3.659273
    32  C    4.511989   4.240542   3.069697   3.594213   2.645976
    33  H    5.411637   4.956311   4.104700   4.500850   3.673994
    34  H    4.903713   4.639508   2.898374   3.358375   2.144299
    35  C    5.295963   5.920629   6.721907   7.414336   7.123088
    36  H    5.595984   6.144513   6.603880   7.349222   6.842775
    37  H    6.219161   6.742102   7.746364   8.387761   8.168061
    38  H    5.214311   6.147127   6.749566   7.527284   7.164095
    39  C    4.792801   6.421285   5.019014   5.917910   5.207396
    40  H    4.549057   6.261696   5.221496   6.157982   5.505712
    41  H    5.598712   7.248420   5.921815   6.744256   6.139070
    42  H    5.356053   6.878130   5.148109   6.119359   5.106591
    43  F    4.959671   5.745200   4.912565   4.880540   5.494303
    44  F    5.456854   4.847155   7.253475   7.235812   8.047849
                   21         22         23         24         25
    21  C    0.000000
    22  C    1.396255   0.000000
    23  H    2.161999   1.082376   0.000000
    24  C    2.405582   1.386600   2.137684   0.000000
    25  C    2.794165   2.417541   3.391206   1.390423   0.000000
    26  H    3.876057   3.388319   4.268481   2.137789   1.082136
    27  C    2.442794   2.809686   3.891857   2.415044   1.393226
    28  C    1.403285   2.419682   3.408304   2.775259   2.412536
    29  C    3.817841   4.901571   4.994416   6.146101   6.511446
    30  H    4.109667   4.967766   4.823071   6.307440   6.884972
    31  H    4.587851   5.659500   5.769018   6.848327   7.151366
    32  C    4.338091   5.570583   5.796560   6.739026   6.926093
    33  H    5.420019   6.626683   6.788684   7.819984   8.018739
    34  H    4.158816   5.305662   5.483725   6.480441   6.734292
    35  C    7.031395   8.138837   8.706009   8.730635   8.356105
    36  H    7.042730   8.259757   8.835223   8.925781   8.541442
    37  H    8.075428   9.145299   9.681530   9.724283   9.354713
    38  H    6.829200   7.903733   8.575954   8.336421   7.815029
    39  C    3.811724   4.319295   5.401611   3.816973   2.545864
    40  H    4.152961   4.802666   5.865496   4.430647   3.245517
    41  H    4.598296   4.838828   5.899374   4.040903   2.654864
    42  H    4.119454   4.799288   5.862092   4.454158   3.279401
    43  F    3.655820   2.381744   2.605349   1.370868   2.385034
    44  F    7.833445   8.401472   8.404649   9.234639   9.541697
                   26         27         28         29         30
    26  H    0.000000
    27  C    2.154551   0.000000
    28  C    3.401587   1.409610   0.000000
    29  C    7.577626   5.762152   4.372582   0.000000
    30  H    7.963265   6.317375   4.945401   1.101018   0.000000
    31  H    8.189273   6.357653   5.019559   1.092380   1.785785
    32  C    7.972535   6.000728   4.611786   1.535134   2.188796
    33  H    9.063392   7.074988   5.692809   2.177884   2.625154
    34  H    7.777682   5.895039   4.534247   2.188846   2.474326
    35  C    9.064902   7.288348   6.544944   5.507865   6.467159
    36  H    9.299419   7.378959   6.532368   5.213107   6.216647
    37  H   10.031217   8.317710   7.611866   6.414593   7.322598
    38  H    8.433966   6.729478   6.164835   5.911850   6.915005
    39  C    2.774421   1.510114   2.512555   6.647028   7.358636
    40  H    3.506606   2.153210   2.828862   6.520955   7.330753
    41  H    2.432073   2.157943   3.426171   7.676852   8.345379
    42  H    3.565545   2.150614   2.782308   6.665186   7.408726
    43  F    2.603972   3.661550   4.146122   7.259183   7.284817
    44  F   10.332902   9.058981   8.187729   5.930600   6.170527
                   31         32         33         34         35
    31  H    0.000000
    32  C    2.161395   0.000000
    33  H    2.429191   1.094977   0.000000
    34  H    3.074487   1.096409   1.778193   0.000000
    35  C    4.752794   5.844277   6.033854   6.843558   0.000000
    36  H    4.496915   5.283852   5.364097   6.288304   1.096108
    37  H    5.569693   6.778439   6.864362   7.810069   1.092913
    38  H    5.306629   6.206343   6.543431   7.119988   1.095114
    39  C    7.135841   6.683484   7.696589   6.657813   7.213335
    40  H    6.849837   6.620632   7.581058   6.773068   6.316975
    41  H    8.171112   7.751978   8.775067   7.687009   8.086797
    42  H    7.210281   6.449907   7.421182   6.346102   7.404672
    43  F    7.957544   7.940537   9.003674   7.635536   9.918660
    44  F    5.029449   7.167644   7.287269   8.080099   4.928783
                   36         37         38         39         40
    36  H    0.000000
    37  H    1.781896   0.000000
    38  H    1.760460   1.783532   0.000000
    39  C    7.276482   8.205222   6.488046   0.000000
    40  H    6.450439   7.267750   5.521898   1.096216   0.000000
    41  H    8.215514   9.037015   7.293862   1.092906   1.781254
    42  H    7.308367   8.419267   6.714548   1.095107   1.760896
    43  F   10.179149  10.877041   9.524084   4.930865   5.570882
    44  F    5.573783   4.921728   5.605216   9.707991   9.054144
                   41         42         43         44
    41  H    0.000000
    42  H    1.783906   0.000000
    43  F    4.925065   5.611241   0.000000
    44  F   10.501966  10.229494   9.998229   0.000000
 Symmetry turned off by external request.
 Stoichiometry    C18H18F2NO4V
 Framework group  C1[X(C18H18F2NO4V)]
 Deg. of freedom   126
 Full point group                 C1      NOp   1
 Rotational constants (GHZ):      0.2686945      0.1337478      0.1154130
 Leave Link  202 at Fri Jun 13 22:59:30 2014, MaxMem=   536870912 cpu:         0.0
 (Enter /global/software/gaussian/g09.d01/l716.exe)
 Electric field and nuclear coordinate derivatives read from checkpoint file.
 Dipole        = 1.61747133D-01 1.27742939D+00 1.25743517D+00
 Full mass-weighted force constant matrix:
 Low frequencies ---   -7.2347   -2.7790   -0.1346   -0.0648    0.2205    6.8684
 Low frequencies ---   28.5259   34.6155   61.7325
 Diagonal vibrational polarizability:
       58.7451514      24.8535165      31.5719976
 Harmonic frequencies (cm**-1), IR intensities (KM/Mole), Raman scattering
 activities (A**4/AMU), depolarization ratios for plane and unpolarized
 incident light, reduced masses (AMU), force constants (mDyne/A),
 and normal coordinates:
                      1                      2                      3
                      A                      A                      A
 Frequencies --     28.5076                34.5825                61.7321
 Red. masses --      7.2263                 6.1584                 5.2255
 Frc consts  --      0.0035                 0.0043                 0.0117
 IR Inten    --      0.0052                 0.2014                 0.4683
  Atom  AN      X      Y      Z        X      Y      Z        X      Y      Z
     1  23    -0.01  -0.05   0.06    -0.01  -0.01   0.00    -0.01  -0.01  -0.05
     2   8    -0.01  -0.05   0.05    -0.04  -0.02   0.03    -0.02   0.01  -0.09
     3   8     0.00  -0.05   0.08     0.12  -0.10   0.08     0.02   0.00  -0.01
     4   8     0.01  -0.03   0.01     0.05   0.08  -0.14    -0.04  -0.04   0.03
     5   8    -0.05  -0.07   0.07    -0.12  -0.01   0.04     0.02  -0.04  -0.07
     6   7    -0.02  -0.07   0.07     0.01  -0.02  -0.05     0.00  -0.03  -0.03
     7   6    -0.04  -0.01   0.04     0.07  -0.06   0.04     0.01   0.00   0.02
     8   6    -0.06   0.04  -0.04     0.10  -0.06   0.09     0.05   0.00   0.10
     9   6    -0.11   0.09  -0.11     0.06  -0.01   0.04     0.02   0.03   0.09
    10   1    -0.13   0.13  -0.18     0.07  -0.01   0.07     0.04   0.03   0.15
    11   6    -0.12   0.08  -0.10    -0.01   0.03  -0.06    -0.05   0.06   0.00
    12   6    -0.09   0.02  -0.02    -0.03   0.02  -0.10    -0.07   0.05  -0.04
    13   1    -0.10   0.02  -0.02    -0.08   0.05  -0.17    -0.11   0.06  -0.09
    14   6    -0.05  -0.02   0.05     0.01  -0.03  -0.05    -0.04   0.02  -0.03
    15   6    -0.03  -0.05   0.10     0.00  -0.04  -0.07    -0.04  -0.02  -0.04
    16   1    -0.05  -0.01   0.13     0.01  -0.07  -0.09    -0.05  -0.05  -0.04
    17   1    -0.01  -0.07   0.14    -0.03  -0.02  -0.10    -0.07  -0.02  -0.04
    18   6    -0.03  -0.10   0.06     0.01  -0.02  -0.03     0.01  -0.04   0.01
    19   1    -0.05  -0.13   0.11     0.03  -0.02  -0.02     0.03  -0.05   0.02
    20   1    -0.04  -0.13   0.01     0.01  -0.02  -0.04     0.02  -0.05   0.00
    21   6     0.01  -0.04   0.03     0.00   0.00  -0.02     0.01  -0.01   0.02
    22   6     0.06  -0.01   0.02    -0.05  -0.03   0.07     0.08   0.03  -0.02
    23   1     0.04  -0.03   0.05    -0.07  -0.07   0.11     0.13   0.06  -0.05
    24   6     0.13   0.06  -0.04    -0.08  -0.01   0.09     0.08   0.06  -0.02
    25   6     0.16   0.10  -0.08    -0.05   0.05   0.03    -0.01   0.01   0.04
    26   1     0.22   0.15  -0.13    -0.07   0.07   0.05    -0.03   0.01   0.06
    27   6     0.12   0.06  -0.06     0.00   0.08  -0.05    -0.08  -0.04   0.08
    28   6     0.04  -0.01   0.00     0.02   0.05  -0.07    -0.04  -0.03   0.04
    29   6    -0.02  -0.08   0.07     0.02   0.00  -0.05     0.03  -0.04  -0.06
    30   1    -0.02  -0.08   0.07     0.04   0.03  -0.07     0.05  -0.05  -0.05
    31   1    -0.02  -0.08   0.07     0.01  -0.05  -0.06     0.02  -0.04  -0.08
    32   6    -0.03  -0.08   0.07    -0.02   0.02   0.01     0.05  -0.05  -0.07
    33   1    -0.02  -0.09   0.06    -0.01   0.00  -0.02     0.06  -0.05  -0.09
    34   1    -0.02  -0.07   0.08     0.00   0.07   0.05     0.06  -0.05  -0.04
    35   6    -0.05   0.05  -0.06     0.17  -0.10   0.20     0.13  -0.04   0.21
    36   1     0.03   0.05  -0.05     0.19  -0.05   0.27     0.11   0.00   0.26
    37   1    -0.08   0.10  -0.12     0.18  -0.09   0.23     0.16  -0.05   0.28
    38   1    -0.10   0.02  -0.01     0.20  -0.19   0.20     0.19  -0.12   0.17
    39   6     0.15   0.11  -0.11     0.03   0.15  -0.12    -0.19  -0.10   0.15
    40   1     0.19   0.09  -0.05     0.03   0.22  -0.14    -0.22  -0.19   0.10
    41   1     0.21   0.17  -0.17     0.01   0.16  -0.10    -0.21  -0.10   0.17
    42   1     0.08   0.09  -0.16     0.08   0.11  -0.18    -0.22  -0.06   0.21
    43   9     0.18   0.10  -0.06    -0.13  -0.04   0.18     0.17   0.12  -0.07
    44   9    -0.16   0.13  -0.18    -0.06   0.08  -0.13    -0.09   0.10  -0.03
                      4                      5                      6
                      A                      A                      A
 Frequencies --     66.8542                97.1820               111.9762
 Red. masses --      4.9288                 5.2492                 1.0345
 Frc consts  --      0.0130                 0.0292                 0.0076
 IR Inten    --      0.5360                 0.9939                 0.0621
  Atom  AN      X      Y      Z        X      Y      Z        X      Y      Z
     1  23     0.00   0.00   0.01     0.01   0.00   0.05     0.00   0.00   0.00
     2   8    -0.01  -0.02   0.06    -0.01  -0.05   0.15     0.00   0.00   0.00
     3   8    -0.09   0.01  -0.10     0.09  -0.11   0.02    -0.01   0.01   0.00
     4   8    -0.03  -0.04   0.05     0.03   0.01  -0.12     0.00   0.00   0.00
     5   8     0.15   0.06  -0.02    -0.09   0.03   0.10     0.01   0.00   0.00
     6   7    -0.02   0.01  -0.04     0.01  -0.05  -0.06     0.00   0.00   0.00
     7   6    -0.08   0.00  -0.07     0.03  -0.05  -0.04    -0.01   0.00   0.00
     8   6    -0.04  -0.03   0.02     0.03   0.04  -0.09    -0.01   0.00   0.00
     9   6    -0.03  -0.05   0.08     0.00   0.06  -0.03     0.00   0.00   0.00
    10   1     0.00  -0.08   0.16     0.00   0.11  -0.03     0.00  -0.01   0.00
    11   6    -0.06  -0.04   0.04    -0.02   0.01   0.06     0.00   0.00   0.00
    12   6    -0.10   0.00  -0.05    -0.05  -0.03   0.01     0.00   0.00   0.00
    13   1    -0.11   0.00  -0.07    -0.09  -0.05   0.03     0.00   0.00   0.00
    14   6    -0.11   0.01  -0.10    -0.02  -0.05  -0.05     0.00   0.00   0.00
    15   6    -0.12  -0.01  -0.13    -0.04  -0.08  -0.12     0.00   0.00   0.01
    16   1    -0.13  -0.12  -0.13    -0.02  -0.17  -0.15     0.00   0.01   0.01
    17   1    -0.17   0.03  -0.19    -0.11  -0.04  -0.18     0.00   0.00   0.01
    18   6    -0.01  -0.06   0.03     0.01  -0.07  -0.05     0.00   0.00   0.00
    19   1    -0.01  -0.08   0.06     0.02  -0.09  -0.02    -0.01   0.00   0.00
    20   1     0.05  -0.09   0.02     0.00  -0.09  -0.08     0.00   0.00   0.00
    21   6    -0.03  -0.05   0.06     0.02  -0.03  -0.04     0.00   0.00   0.00
    22   6    -0.02  -0.04   0.07     0.04  -0.01  -0.01     0.01   0.00   0.00
    23   1    -0.04  -0.06   0.09     0.08  -0.02  -0.01     0.01   0.01  -0.01
    24   6     0.03   0.00   0.03     0.03   0.03   0.01     0.00   0.00   0.00
    25   6     0.08   0.05  -0.02    -0.04   0.02   0.03    -0.01  -0.01   0.01
    26   1     0.13   0.09  -0.07    -0.08   0.03   0.06    -0.01  -0.01   0.01
    27   6     0.06   0.04  -0.03    -0.07   0.00  -0.01    -0.01  -0.01   0.01
    28   6    -0.01  -0.02   0.03     0.00  -0.01  -0.06     0.00   0.00   0.00
    29   6     0.07   0.10  -0.08     0.03   0.04  -0.05     0.00   0.00   0.01
    30   1     0.06   0.11  -0.09     0.04   0.11  -0.11    -0.01   0.00   0.01
    31   1     0.04   0.16  -0.13     0.02   0.01  -0.08     0.00   0.00   0.01
    32   6     0.19   0.09  -0.04     0.03   0.08   0.05     0.00   0.00   0.00
    33   1     0.26   0.14  -0.09     0.07   0.08   0.00     0.00   0.00   0.00
    34   1     0.24   0.04   0.03     0.07   0.13   0.13     0.00  -0.01   0.00
    35   6    -0.01  -0.06   0.07     0.07   0.11  -0.20    -0.01  -0.01   0.01
    36   1    -0.09  -0.04   0.09     0.16   0.05  -0.27    -0.02   0.00   0.02
    37   1     0.02  -0.09   0.16     0.04   0.21  -0.27    -0.01  -0.01   0.02
    38   1     0.05  -0.06   0.02     0.03   0.13  -0.17    -0.01  -0.01   0.01
    39   6     0.13   0.10  -0.10    -0.17  -0.01   0.01     0.01   0.01  -0.02
    40   1     0.18   0.12  -0.02    -0.24   0.01  -0.12    -0.17   0.41  -0.40
    41   1     0.20   0.15  -0.15    -0.27  -0.05   0.12    -0.33  -0.26   0.31
    42   1     0.08   0.07  -0.17    -0.06  -0.01   0.04     0.59  -0.07   0.01
    43   9     0.04   0.01   0.03     0.08   0.07   0.02     0.01   0.01  -0.01
    44   9    -0.04  -0.06   0.12    -0.03   0.01   0.18     0.00   0.00  -0.01
                      7                      8                      9
                      A                      A                      A
 Frequencies --    122.9815               128.3382               153.4945
 Red. masses --      1.0706                 4.4926                 5.7345
 Frc consts  --      0.0095                 0.0436                 0.0796
 IR Inten    --      0.2454                 0.9207                 3.8109
  Atom  AN      X      Y      Z        X      Y      Z        X      Y      Z
     1  23     0.00   0.00   0.00     0.01   0.02   0.01     0.03   0.03   0.02
     2   8    -0.02   0.00  -0.01     0.15   0.01   0.04    -0.06   0.00   0.06
     3   8     0.00  -0.01   0.00    -0.07   0.10   0.01     0.00  -0.03  -0.07
     4   8     0.00   0.01   0.02     0.00  -0.07  -0.14     0.04   0.08  -0.07
     5   8     0.01   0.00  -0.01    -0.03   0.05   0.04     0.33   0.04  -0.06
     6   7     0.00   0.00   0.00     0.03   0.00   0.00    -0.03  -0.05   0.07
     7   6     0.00   0.00  -0.01    -0.05   0.08   0.02     0.03  -0.07   0.04
     8   6     0.00   0.01  -0.02    -0.06   0.01   0.03     0.03  -0.05   0.02
     9   6    -0.01   0.01  -0.01    -0.02  -0.03   0.00     0.00  -0.02   0.01
    10   1    -0.01   0.02  -0.02    -0.02  -0.08   0.01    -0.02   0.02  -0.04
    11   6     0.00   0.00   0.00     0.02  -0.01  -0.02    -0.02  -0.03   0.02
    12   6     0.00  -0.01   0.01     0.04   0.05   0.00     0.01  -0.09   0.10
    13   1     0.00  -0.01   0.01     0.09   0.06   0.00     0.01  -0.10   0.12
    14   6     0.00  -0.01   0.00    -0.01   0.08   0.02     0.03  -0.10   0.10
    15   6     0.00   0.00  -0.01     0.01   0.07   0.08     0.01  -0.08   0.06
    16   1     0.00  -0.01  -0.01    -0.01   0.14   0.11     0.04  -0.10   0.03
    17   1     0.00   0.00  -0.02     0.04   0.02   0.15     0.00  -0.06   0.02
    18   6     0.00   0.02   0.01    -0.01  -0.15  -0.05    -0.07  -0.04  -0.02
    19   1     0.01   0.02   0.00    -0.11  -0.21   0.05    -0.09  -0.06   0.02
    20   1     0.00   0.02   0.02     0.02  -0.23  -0.15    -0.12  -0.06  -0.08
    21   6     0.00   0.01   0.01     0.02  -0.10  -0.06    -0.01   0.04  -0.07
    22   6    -0.01   0.01   0.00     0.05  -0.08  -0.01    -0.02   0.04  -0.05
    23   1    -0.01   0.01   0.00     0.08  -0.11   0.03    -0.03   0.02  -0.03
    24   6     0.00   0.00   0.00     0.03  -0.02   0.02    -0.04   0.04  -0.03
    25   6     0.00   0.00   0.00    -0.02   0.01   0.00    -0.05   0.04  -0.03
    26   1     0.01   0.00   0.00    -0.05   0.04   0.02    -0.08   0.02   0.00
    27   6     0.01   0.00   0.01    -0.05  -0.02  -0.06    -0.04   0.04  -0.05
    28   6     0.00   0.01   0.01     0.00  -0.06  -0.10     0.01   0.05  -0.09
    29   6     0.00   0.00  -0.01     0.01   0.04   0.02    -0.10   0.05   0.16
    30   1     0.01   0.00   0.00    -0.03   0.05   0.01    -0.34  -0.04   0.19
    31   1     0.00   0.00  -0.01     0.01   0.05   0.05    -0.07   0.28   0.28
    32   6     0.00   0.00  -0.01     0.02   0.04   0.04     0.15  -0.05   0.02
    33   1     0.00   0.00  -0.01     0.05   0.03   0.00     0.20   0.04   0.01
    34   1     0.00  -0.01  -0.01     0.05   0.04   0.08     0.14  -0.26  -0.02
    35   6     0.02  -0.01   0.01    -0.12  -0.05   0.11     0.03  -0.02  -0.02
    36   1     0.58   0.07   0.17     0.08   0.03   0.22     0.06  -0.05  -0.04
    37   1    -0.18   0.20  -0.44    -0.21  -0.04  -0.09     0.02   0.01  -0.04
    38   1    -0.30  -0.31   0.40    -0.28  -0.19   0.29     0.02  -0.01  -0.01
    39   6     0.02   0.00   0.01    -0.16   0.01  -0.08    -0.14   0.01  -0.02
    40   1     0.02   0.01   0.01    -0.17  -0.08  -0.09    -0.17  -0.06  -0.06
    41   1     0.02  -0.01   0.01    -0.15   0.10  -0.07    -0.16   0.04   0.01
    42   1     0.03   0.00   0.01    -0.25   0.01  -0.10    -0.18   0.04   0.02
    43   9    -0.01   0.00  -0.01     0.07   0.02   0.08    -0.06   0.03  -0.01
    44   9     0.00   0.00   0.02     0.08  -0.05  -0.05    -0.09   0.04  -0.09
                     10                     11                     12
                      A                      A                      A
 Frequencies --    176.2686               182.9685               195.3488
 Red. masses --      8.2216                 4.2827                 7.6973
 Frc consts  --      0.1505                 0.0845                 0.1731
 IR Inten    --      2.0319                 2.3391                 2.2473
  Atom  AN      X      Y      Z        X      Y      Z        X      Y      Z
     1  23    -0.04   0.16   0.04     0.06   0.03  -0.01    -0.03   0.14   0.09
     2   8     0.00   0.18   0.00     0.17   0.01   0.04    -0.15   0.16   0.06
     3   8     0.04   0.04  -0.03    -0.06   0.03  -0.18    -0.08   0.07  -0.09
     4   8    -0.16  -0.12   0.12     0.03  -0.01   0.02    -0.08  -0.02   0.08
     5   8    -0.01   0.02   0.01     0.02   0.03   0.01    -0.04  -0.11   0.05
     6   7    -0.03  -0.09  -0.06    -0.01  -0.02   0.02     0.07  -0.17  -0.04
     7   6     0.11  -0.03   0.01    -0.03  -0.01  -0.12    -0.04   0.04  -0.10
     8   6     0.11  -0.03   0.00     0.00  -0.02  -0.06    -0.02   0.03  -0.06
     9   6     0.09  -0.01  -0.01     0.00  -0.01  -0.02    -0.03   0.03  -0.04
    10   1     0.08   0.02  -0.05     0.02  -0.01   0.03    -0.01   0.02   0.00
    11   6     0.09  -0.01   0.00    -0.04  -0.02  -0.02    -0.02   0.02  -0.02
    12   6     0.10  -0.04   0.05    -0.04  -0.04  -0.03    -0.02   0.01  -0.01
    13   1     0.10  -0.04   0.05    -0.05  -0.06   0.00    -0.01  -0.02   0.04
    14   6     0.11  -0.05   0.05    -0.03  -0.04  -0.07    -0.01   0.01  -0.05
    15   6     0.03  -0.09  -0.07    -0.02  -0.06  -0.04     0.03  -0.08   0.04
    16   1     0.10  -0.14  -0.15    -0.04  -0.10  -0.03    -0.02   0.00   0.10
    17   1    -0.06  -0.08  -0.09    -0.02  -0.03  -0.08     0.04  -0.15   0.15
    18   6    -0.04  -0.11   0.00     0.00   0.03   0.00     0.06  -0.12  -0.06
    19   1     0.00  -0.10  -0.01     0.03   0.06  -0.04     0.11  -0.19   0.03
    20   1     0.04  -0.10   0.04    -0.04   0.08   0.04    -0.04  -0.17  -0.17
    21   6    -0.15  -0.14   0.09     0.02   0.01   0.00     0.12   0.07  -0.10
    22   6    -0.11  -0.11   0.08     0.03   0.01   0.02     0.13   0.08  -0.11
    23   1    -0.08  -0.10   0.07     0.04   0.00   0.02     0.11   0.08  -0.11
    24   6    -0.05  -0.05   0.03     0.02   0.02   0.03     0.06   0.01  -0.06
    25   6    -0.05  -0.03   0.01     0.02   0.01   0.03     0.08   0.02  -0.08
    26   1     0.04   0.05  -0.06     0.01   0.01   0.04     0.03   0.00  -0.04
    27   6    -0.10  -0.07   0.03     0.02   0.01   0.02     0.07   0.03  -0.08
    28   6    -0.18  -0.14   0.10     0.03   0.00   0.01     0.04   0.05  -0.06
    29   6    -0.04  -0.01  -0.01    -0.12  -0.02   0.10     0.10  -0.16  -0.03
    30   1    -0.10   0.03  -0.05    -0.16   0.01   0.07     0.15  -0.09  -0.09
    31   1    -0.03   0.01   0.02    -0.07  -0.10   0.19     0.09  -0.22  -0.08
    32   6    -0.01   0.00   0.02    -0.28   0.01   0.06     0.05  -0.12   0.04
    33   1     0.00   0.01   0.00    -0.47  -0.02   0.29     0.07  -0.14   0.01
    34   1     0.00  -0.02   0.04    -0.44   0.05  -0.20     0.08  -0.06   0.10
    35   6     0.12   0.02  -0.08     0.09  -0.05   0.03     0.05  -0.03   0.08
    36   1     0.19  -0.03  -0.13     0.10  -0.01   0.08     0.00   0.04   0.17
    37   1     0.11   0.09  -0.12     0.11  -0.04   0.08     0.09  -0.07   0.18
    38   1     0.10   0.04  -0.06     0.13  -0.14   0.01     0.13  -0.13   0.03
    39   6     0.05   0.07  -0.13     0.00   0.02   0.02     0.01  -0.08   0.04
    40   1     0.11   0.22  -0.05     0.00   0.00   0.02    -0.04  -0.15  -0.02
    41   1     0.12   0.14  -0.20     0.00   0.03   0.02    -0.05  -0.18   0.08
    42   1     0.06  -0.02  -0.31    -0.01   0.02   0.02     0.05  -0.02   0.17
    43   9     0.10   0.05  -0.07     0.03   0.02   0.06    -0.13  -0.13   0.06
    44   9     0.06   0.02  -0.12    -0.06  -0.01   0.03    -0.01   0.00   0.06
                     13                     14                     15
                      A                      A                      A
 Frequencies --    210.8209               219.3102               226.6453
 Red. masses --      6.1620                 4.4271                 5.8417
 Frc consts  --      0.1614                 0.1255                 0.1768
 IR Inten    --      3.4150                 0.9704                 2.0739
  Atom  AN      X      Y      Z        X      Y      Z        X      Y      Z
     1  23    -0.04  -0.04  -0.02     0.03   0.06   0.01     0.03  -0.02   0.08
     2   8     0.02  -0.06   0.03     0.11   0.12  -0.11     0.24   0.06  -0.06
     3   8    -0.07   0.03   0.00     0.00   0.02  -0.02     0.04   0.00   0.14
     4   8    -0.14  -0.17   0.14     0.08   0.10  -0.08    -0.01   0.00   0.08
     5   8     0.03   0.04  -0.02    -0.08  -0.02   0.03     0.15  -0.17   0.02
     6   7     0.02   0.03  -0.05    -0.02  -0.05  -0.01    -0.02  -0.08  -0.06
     7   6     0.02  -0.04   0.09     0.02  -0.02   0.05     0.01   0.01   0.05
     8   6     0.04  -0.04   0.13     0.01  -0.07   0.09    -0.02   0.00   0.01
     9   6     0.05  -0.05   0.18     0.04  -0.10   0.15    -0.02   0.00  -0.01
    10   1     0.05  -0.04   0.16     0.05  -0.10   0.17    -0.02   0.00   0.00
    11   6     0.03  -0.01   0.09    -0.02  -0.06   0.05    -0.02   0.01  -0.02
    12   6     0.02  -0.01   0.07    -0.04  -0.02   0.01    -0.05   0.06  -0.08
    13   1    -0.03   0.02   0.00    -0.06   0.03  -0.09    -0.06   0.08  -0.12
    14   6     0.04  -0.02   0.07    -0.02  -0.02   0.02    -0.02   0.03  -0.03
    15   6     0.01   0.01  -0.08    -0.07  -0.07  -0.09    -0.04  -0.06  -0.07
    16   1     0.07  -0.07  -0.15    -0.04  -0.21  -0.15    -0.03  -0.12  -0.08
    17   1    -0.08   0.05  -0.13    -0.19  -0.01  -0.18    -0.12  -0.06  -0.07
    18   6     0.05   0.06  -0.06    -0.01  -0.05   0.03     0.01   0.07  -0.05
    19   1     0.05   0.09  -0.11     0.02  -0.07   0.07     0.12   0.13  -0.13
    20   1     0.02   0.09  -0.03    -0.01  -0.07   0.00    -0.06   0.16   0.04
    21   6     0.09   0.02  -0.09    -0.01   0.01   0.04     0.00   0.07  -0.05
    22   6     0.16   0.06  -0.10    -0.06  -0.02   0.06     0.04   0.11  -0.09
    23   1     0.21   0.07  -0.12    -0.13  -0.05   0.10     0.13   0.16  -0.15
    24   6     0.08   0.03  -0.02     0.01   0.01   0.00    -0.06   0.05  -0.01
    25   6     0.08   0.04  -0.04     0.06   0.03  -0.03    -0.12  -0.02   0.07
    26   1     0.05   0.04  -0.02     0.07   0.03  -0.05    -0.16  -0.07   0.10
    27   6     0.04   0.01  -0.04     0.06   0.03  -0.01    -0.08   0.00   0.04
    28   6     0.00  -0.05  -0.01     0.05   0.07  -0.01    -0.04   0.00   0.02
    29   6     0.01   0.05  -0.06     0.03  -0.02  -0.04     0.01  -0.10  -0.08
    30   1     0.04   0.07  -0.08     0.08   0.01  -0.06     0.08  -0.08  -0.09
    31   1     0.02  -0.02  -0.05     0.01  -0.05  -0.09     0.00  -0.15  -0.12
    32   6    -0.07   0.08  -0.03     0.02   0.00   0.01     0.02  -0.09  -0.01
    33   1    -0.15   0.07   0.06     0.05  -0.01  -0.03    -0.02  -0.01   0.09
    34   1    -0.13   0.13  -0.13     0.05   0.03   0.08    -0.03  -0.07  -0.09
    35   6    -0.03   0.08  -0.12    -0.16  -0.01  -0.08    -0.11  -0.02   0.01
    36   1     0.11  -0.06  -0.27    -0.09  -0.10  -0.17    -0.14  -0.01   0.01
    37   1    -0.11   0.19  -0.29    -0.24  -0.02  -0.26    -0.13  -0.08  -0.04
    38   1    -0.16   0.22  -0.03    -0.31   0.13   0.03    -0.16   0.02   0.04
    39   6    -0.05   0.02  -0.05     0.03  -0.09   0.12    -0.05   0.14  -0.11
    40   1    -0.08  -0.01  -0.11     0.01  -0.14   0.08    -0.01   0.21  -0.06
    41   1    -0.08   0.06   0.00    -0.01  -0.21   0.15     0.01   0.28  -0.15
    42   1    -0.06   0.02  -0.05     0.09  -0.02   0.27    -0.12   0.06  -0.29
    43   9    -0.05  -0.06   0.17    -0.01  -0.01  -0.03    -0.07   0.04  -0.06
    44   9    -0.07   0.10  -0.10    -0.08   0.00  -0.09     0.02  -0.03   0.05
                     16                     17                     18
                      A                      A                      A
 Frequencies --    231.8288               244.4321               253.7878
 Red. masses --      4.3670                 4.3561                 5.8098
 Frc consts  --      0.1383                 0.1533                 0.2205
 IR Inten    --      1.5788                 2.5828                 0.1330
  Atom  AN      X      Y      Z        X      Y      Z        X      Y      Z
     1  23     0.00  -0.02   0.01    -0.02  -0.01  -0.02     0.01  -0.02   0.00
     2   8     0.05   0.02  -0.06     0.23   0.00  -0.04     0.06  -0.16   0.30
     3   8     0.07  -0.03   0.11    -0.03   0.00  -0.01    -0.10   0.08  -0.11
     4   8    -0.05  -0.04   0.10    -0.04  -0.03   0.02     0.02   0.04  -0.02
     5   8     0.08  -0.02  -0.01    -0.13   0.04   0.01     0.01  -0.11  -0.02
     6   7    -0.05   0.01  -0.01    -0.01   0.01   0.01     0.00  -0.04  -0.05
     7   6     0.03   0.01   0.02     0.00  -0.03  -0.01    -0.03   0.04  -0.05
     8   6     0.01   0.02  -0.03    -0.03   0.00  -0.07     0.01   0.02   0.03
     9   6     0.00   0.03  -0.07    -0.07   0.05  -0.15     0.04  -0.01   0.10
    10   1     0.00   0.03  -0.08    -0.12   0.12  -0.28     0.05  -0.04   0.12
    11   6     0.02   0.02  -0.05    -0.02  -0.03   0.02     0.04   0.01   0.05
    12   6     0.00   0.05  -0.08     0.06  -0.13   0.21     0.05   0.01   0.05
    13   1     0.00   0.06  -0.09     0.11  -0.20   0.36     0.04   0.00   0.07
    14   6     0.00   0.03  -0.03     0.04  -0.08   0.09     0.02   0.03   0.01
    15   6    -0.03   0.01  -0.04     0.01  -0.04  -0.02     0.04   0.03   0.05
    16   1    -0.01  -0.01  -0.05     0.07  -0.10  -0.09     0.02   0.16   0.08
    17   1    -0.05   0.02  -0.06    -0.04   0.00  -0.09     0.10  -0.05   0.17
    18   6    -0.06  -0.03   0.02     0.00   0.06   0.02     0.02   0.04   0.02
    19   1    -0.07  -0.05   0.04     0.03   0.10  -0.03     0.10   0.08  -0.04
    20   1    -0.01  -0.06   0.00     0.00   0.10   0.08     0.03   0.09   0.10
    21   6    -0.07  -0.03   0.04     0.00   0.02   0.01    -0.07   0.01   0.06
    22   6    -0.11  -0.06   0.08     0.00   0.03  -0.02    -0.15  -0.03   0.09
    23   1    -0.22  -0.15   0.18    -0.01   0.03  -0.01    -0.22  -0.07   0.14
    24   6     0.02   0.04  -0.03     0.00   0.03  -0.02    -0.06   0.02   0.00
    25   6     0.19   0.15  -0.16     0.03   0.04  -0.03     0.03   0.06  -0.03
    26   1     0.28   0.21  -0.23     0.05   0.04  -0.04     0.09   0.08  -0.09
    27   6     0.09   0.07  -0.08     0.01   0.03   0.00     0.01   0.05   0.00
    28   6     0.00   0.00   0.00    -0.01   0.00   0.02     0.00   0.03   0.01
    29   6    -0.07   0.02   0.00     0.06   0.04  -0.04     0.09  -0.13  -0.14
    30   1    -0.11   0.00   0.01     0.11   0.04  -0.04     0.31  -0.08  -0.15
    31   1    -0.06   0.05   0.03     0.03   0.06  -0.12     0.05  -0.29  -0.28
    32   6    -0.04   0.00  -0.01     0.13   0.04  -0.01    -0.01  -0.07  -0.05
    33   1    -0.06   0.05   0.05     0.25   0.01  -0.19    -0.05  -0.08   0.00
    34   1    -0.07  -0.03  -0.07     0.24   0.04   0.18    -0.04   0.01  -0.09
    35   6     0.04   0.01   0.00     0.05  -0.07   0.08     0.04   0.05  -0.01
    36   1     0.02   0.02   0.01    -0.03   0.02   0.17     0.10   0.02  -0.04
    37   1     0.06   0.01   0.04     0.11  -0.12   0.21     0.03   0.12  -0.04
    38   1     0.08  -0.01  -0.03     0.15  -0.17   0.01     0.03   0.05   0.00
    39   6    -0.15  -0.04   0.06    -0.02   0.02   0.02    -0.09   0.05   0.02
    40   1    -0.28  -0.18  -0.14    -0.04   0.00  -0.01    -0.14   0.00  -0.06
    41   1    -0.30  -0.10   0.22    -0.04   0.01   0.04    -0.14   0.08   0.07
    42   1    -0.11   0.04   0.24    -0.01   0.03   0.04    -0.11   0.06   0.04
    43   9    -0.07  -0.02   0.05    -0.06  -0.01  -0.01    -0.06   0.02  -0.13
    44   9     0.10  -0.06   0.03    -0.07   0.02   0.00     0.03   0.04  -0.08
                     19                     20                     21
                      A                      A                      A
 Frequencies --    261.3605               282.8143               292.9586
 Red. masses --      3.4338                 3.7997                 4.8442
 Frc consts  --      0.1382                 0.1791                 0.2450
 IR Inten    --      1.8557                 0.6120                 2.2540
  Atom  AN      X      Y      Z        X      Y      Z        X      Y      Z
     1  23    -0.02  -0.01  -0.01     0.04   0.01   0.02    -0.01   0.07  -0.07
     2   8     0.13   0.00  -0.03    -0.10   0.08  -0.12     0.09  -0.04   0.17
     3   8    -0.02  -0.02  -0.04     0.02  -0.04  -0.04     0.15  -0.10   0.02
     4   8    -0.04  -0.02   0.04     0.03  -0.02   0.02    -0.07  -0.03   0.04
     5   8    -0.12   0.02   0.02     0.01   0.03   0.04     0.00   0.04  -0.08
     6   7     0.02   0.03   0.09     0.06   0.05   0.03     0.00  -0.01  -0.04
     7   6    -0.02  -0.03  -0.04     0.00  -0.03  -0.02     0.07  -0.03   0.02
     8   6     0.03  -0.04   0.02     0.01  -0.03  -0.01     0.05  -0.03  -0.01
     9   6     0.05  -0.07   0.11     0.03  -0.03   0.00     0.08  -0.02  -0.04
    10   1     0.09  -0.11   0.21     0.03  -0.04   0.01     0.08  -0.03  -0.03
    11   6    -0.01  -0.02  -0.02    -0.01  -0.03   0.00     0.01  -0.01  -0.05
    12   6    -0.06   0.03  -0.16     0.00  -0.05  -0.01     0.00  -0.03  -0.10
    13   1    -0.10   0.06  -0.23     0.01  -0.06  -0.01     0.01  -0.01  -0.13
    14   6    -0.03   0.00  -0.08     0.00  -0.03  -0.02     0.02  -0.03  -0.02
    15   6     0.03   0.03   0.10     0.07   0.05   0.07     0.07   0.05   0.09
    16   1    -0.06   0.13   0.21     0.02   0.17   0.14     0.03   0.28   0.17
    17   1     0.18   0.00   0.15     0.20   0.01   0.14     0.25  -0.05   0.24
    18   6    -0.02  -0.01   0.04     0.06   0.07   0.03    -0.01  -0.03  -0.03
    19   1    -0.07  -0.04   0.08     0.06   0.15  -0.07     0.00  -0.07   0.02
    20   1    -0.02  -0.05  -0.02     0.08   0.14   0.13     0.01  -0.07  -0.07
    21   6     0.00   0.02   0.00     0.01  -0.04   0.03    -0.03   0.00   0.00
    22   6     0.02   0.04  -0.03    -0.03  -0.06   0.05    -0.01   0.01  -0.01
    23   1     0.03   0.05  -0.04    -0.06  -0.08   0.07    -0.01   0.01  -0.01
    24   6     0.00   0.02  -0.02     0.01  -0.04   0.01    -0.01   0.02  -0.01
    25   6     0.00   0.01   0.00     0.06  -0.01  -0.01     0.00   0.03  -0.03
    26   1    -0.01   0.00   0.01     0.10   0.03  -0.03     0.02   0.04  -0.05
    27   6    -0.01   0.01   0.01     0.02  -0.02  -0.01    -0.02   0.01   0.00
    28   6    -0.02   0.00   0.02     0.02  -0.04   0.01    -0.05  -0.01   0.02
    29   6    -0.01   0.01   0.12     0.10   0.00  -0.01    -0.03  -0.01  -0.01
    30   1    -0.10  -0.06   0.16     0.24   0.05  -0.03    -0.10  -0.03  -0.01
    31   1     0.00   0.14   0.16     0.08  -0.13  -0.09    -0.02   0.04   0.03
    32   6     0.11  -0.05   0.04    -0.03   0.05   0.04     0.00  -0.03  -0.06
    33   1     0.26  -0.08  -0.17    -0.11   0.02   0.12     0.03  -0.04  -0.09
    34   1     0.24  -0.12   0.23    -0.08   0.15  -0.04     0.02  -0.07  -0.04
    35   6     0.13   0.04  -0.10    -0.07  -0.06   0.00    -0.19  -0.10   0.01
    36   1     0.25  -0.04  -0.18    -0.10  -0.04   0.01    -0.28  -0.05   0.06
    37   1     0.12   0.20  -0.12    -0.08  -0.13  -0.03    -0.24  -0.30  -0.10
    38   1     0.14   0.05  -0.10    -0.11  -0.03   0.03    -0.32  -0.01   0.11
    39   6    -0.03   0.04  -0.02    -0.18   0.09  -0.11     0.08  -0.04   0.05
    40   1    -0.04   0.05  -0.03    -0.26   0.04  -0.24     0.11  -0.02   0.11
    41   1    -0.04   0.09  -0.01    -0.25   0.28   0.01     0.11  -0.14  -0.01
    42   1    -0.05   0.03  -0.06    -0.25   0.05  -0.21     0.11  -0.02   0.10
    43   9    -0.06  -0.02  -0.05     0.00  -0.07  -0.09    -0.01   0.03   0.04
    44   9     0.00  -0.03   0.01    -0.12   0.07   0.07    -0.11   0.09   0.13
                     22                     23                     24
                      A                      A                      A
 Frequencies --    298.4513               303.1779               337.0684
 Red. masses --      2.7620                 3.1803                 5.7586
 Frc consts  --      0.1450                 0.1722                 0.3855
 IR Inten    --      0.4713                 2.4846                 5.7952
  Atom  AN      X      Y      Z        X      Y      Z        X      Y      Z
     1  23    -0.03   0.02   0.01    -0.04   0.00   0.05     0.09  -0.08   0.05
     2   8     0.00   0.01   0.03     0.07   0.06  -0.08    -0.07  -0.02  -0.08
     3   8    -0.04   0.05   0.02    -0.03  -0.05   0.02    -0.05   0.03  -0.10
     4   8    -0.02  -0.04  -0.11    -0.02   0.01  -0.05     0.07   0.03   0.18
     5   8    -0.01  -0.04  -0.01     0.11  -0.01   0.02    -0.12  -0.13   0.11
     6   7     0.00  -0.01   0.05    -0.02   0.02  -0.05    -0.04  -0.02  -0.12
     7   6     0.01   0.01  -0.01    -0.04  -0.04   0.01    -0.02   0.04  -0.11
     8   6     0.01   0.00  -0.01    -0.02  -0.03   0.01     0.01   0.03  -0.04
     9   6     0.01   0.00   0.01    -0.03  -0.03   0.02     0.08  -0.02   0.04
    10   1     0.02  -0.01   0.03    -0.03  -0.04   0.02     0.09  -0.07   0.07
    11   6     0.00   0.02  -0.02    -0.03  -0.03   0.00     0.08   0.00   0.03
    12   6    -0.01   0.03  -0.05    -0.02  -0.04   0.00     0.08  -0.03   0.03
    13   1    -0.03   0.04  -0.07    -0.01  -0.05   0.02     0.10  -0.04   0.06
    14   6     0.01   0.00  -0.02    -0.02  -0.02   0.00     0.03   0.02  -0.05
    15   6     0.02  -0.05  -0.04     0.05   0.09   0.12     0.04   0.05  -0.01
    16   1     0.01  -0.15  -0.05     0.00   0.38   0.22     0.04   0.20   0.02
    17   1    -0.05  -0.01  -0.10     0.27  -0.04   0.32     0.12  -0.03   0.11
    18   6     0.04   0.23   0.02    -0.01   0.02  -0.03    -0.05   0.01  -0.12
    19   1     0.14   0.46  -0.31    -0.01   0.04  -0.05     0.00   0.01  -0.11
    20   1     0.02   0.48   0.35     0.00   0.04  -0.01    -0.02   0.01  -0.11
    21   6     0.00  -0.04   0.00    -0.02  -0.01  -0.03    -0.07   0.02  -0.06
    22   6    -0.04  -0.08  -0.01    -0.05  -0.04  -0.01    -0.08  -0.01  -0.03
    23   1    -0.06  -0.08  -0.01    -0.08  -0.05   0.00    -0.10  -0.02  -0.02
    24   6     0.00  -0.04  -0.02    -0.04  -0.01  -0.02    -0.07   0.02  -0.03
    25   6     0.02   0.00  -0.07    -0.05   0.01  -0.05    -0.03   0.01  -0.04
    26   1     0.05   0.02  -0.10    -0.04   0.01  -0.06     0.01  -0.02  -0.08
    27   6     0.00  -0.01  -0.03    -0.03   0.00  -0.04    -0.01  -0.02  -0.02
    28   6     0.00  -0.03  -0.02    -0.02   0.01  -0.04    -0.01  -0.02  -0.01
    29   6    -0.01  -0.03   0.07     0.05  -0.01  -0.11    -0.15   0.05  -0.02
    30   1    -0.06  -0.09   0.11     0.21   0.06  -0.15    -0.38   0.01  -0.02
    31   1    -0.01   0.04   0.10     0.02  -0.14  -0.22    -0.12   0.26   0.12
    32   6     0.06  -0.08   0.01    -0.02   0.06  -0.01     0.08  -0.01   0.02
    33   1     0.13  -0.08  -0.08    -0.09   0.09   0.11     0.29   0.11  -0.17
    34   1     0.11  -0.14   0.08    -0.08   0.12  -0.11     0.24  -0.12   0.26
    35   6    -0.02  -0.01   0.00     0.12   0.02  -0.04    -0.05  -0.02   0.02
    36   1    -0.02   0.00   0.01     0.19  -0.03  -0.10    -0.09   0.02   0.07
    37   1    -0.02  -0.03  -0.02     0.14   0.16   0.00    -0.06  -0.11   0.00
    38   1    -0.03   0.00   0.01     0.18  -0.01  -0.09    -0.07  -0.03   0.04
    39   6     0.00  -0.04  -0.01     0.08  -0.08   0.03     0.00  -0.03  -0.02
    40   1    -0.01  -0.06  -0.02     0.11  -0.06   0.09     0.01  -0.03  -0.01
    41   1    -0.01  -0.08   0.00     0.10  -0.21  -0.02     0.01  -0.06  -0.03
    42   1     0.02  -0.03   0.03     0.13  -0.04   0.12     0.01  -0.03  -0.01
    43   9     0.07   0.02   0.08     0.05   0.07   0.08     0.03   0.12   0.11
    44   9     0.00   0.02   0.03    -0.05  -0.02   0.00    -0.02   0.11   0.00
                     25                     26                     27
                      A                      A                      A
 Frequencies --    347.5898               374.0532               391.0149
 Red. masses --      6.9832                 3.2803                 5.7406
 Frc consts  --      0.4971                 0.2704                 0.5171
 IR Inten    --      6.5585                14.7003                 7.3251
  Atom  AN      X      Y      Z        X      Y      Z        X      Y      Z
     1  23     0.11   0.09  -0.04     0.02   0.01  -0.01    -0.02   0.05   0.02
     2   8    -0.04   0.04   0.08     0.00  -0.01   0.03     0.02   0.03   0.09
     3   8     0.20  -0.16  -0.07    -0.01   0.04   0.01    -0.06   0.11   0.13
     4   8     0.05  -0.01   0.08     0.03   0.06   0.10     0.05   0.05   0.02
     5   8    -0.08  -0.03  -0.02    -0.01  -0.03  -0.02    -0.02  -0.17  -0.05
     6   7    -0.12   0.01   0.00     0.01   0.15   0.18    -0.09   0.15  -0.05
     7   6    -0.03   0.02   0.02     0.03   0.01  -0.01     0.02   0.00   0.03
     8   6    -0.05   0.03   0.04     0.02  -0.01  -0.02     0.00  -0.07  -0.01
     9   6    -0.10   0.01   0.05     0.03  -0.01  -0.03     0.00  -0.07  -0.06
    10   1    -0.09   0.08   0.06     0.03  -0.01  -0.03    -0.02  -0.06  -0.12
    11   6    -0.11  -0.03   0.07     0.02  -0.02  -0.02     0.00  -0.09  -0.02
    12   6    -0.10   0.00   0.10     0.02  -0.02  -0.01     0.03  -0.05   0.00
    13   1    -0.10  -0.02   0.13     0.04  -0.01  -0.02     0.12  -0.02  -0.01
    14   6    -0.12   0.00   0.04     0.00   0.00   0.00     0.00   0.03   0.00
    15   6    -0.10   0.06   0.09    -0.04   0.01  -0.04    -0.02   0.14  -0.06
    16   1    -0.13   0.22   0.14    -0.02  -0.26  -0.10     0.01   0.18  -0.08
    17   1     0.01  -0.02   0.20    -0.13   0.18  -0.30     0.03   0.15  -0.07
    18   6    -0.08   0.13   0.05    -0.08  -0.04   0.08    -0.05   0.01   0.00
    19   1     0.00   0.26  -0.14    -0.28  -0.14   0.22    -0.13  -0.07   0.11
    20   1    -0.09   0.26   0.22    -0.06  -0.18  -0.11     0.02  -0.09  -0.10
    21   6    -0.03  -0.01   0.00    -0.03   0.01  -0.02     0.04   0.02   0.01
    22   6     0.06   0.02  -0.09    -0.04  -0.01  -0.08     0.06   0.00   0.07
    23   1     0.08   0.06  -0.13    -0.08   0.01  -0.11     0.05  -0.01   0.07
    24   6     0.05  -0.01  -0.06    -0.04  -0.02  -0.08     0.07  -0.08   0.07
    25   6     0.03  -0.03  -0.03    -0.07  -0.03  -0.08     0.04  -0.09   0.11
    26   1     0.03  -0.07  -0.03    -0.07  -0.06  -0.08    -0.04  -0.10   0.18
    27   6     0.02  -0.05   0.01    -0.03  -0.03  -0.06     0.10  -0.02  -0.01
    28   6     0.00  -0.06   0.04    -0.03   0.01  -0.03     0.10   0.05  -0.03
    29   6    -0.04  -0.02  -0.09     0.14  -0.05   0.02    -0.17   0.03  -0.07
    30   1     0.05  -0.02  -0.08     0.45  -0.10   0.12    -0.30  -0.11   0.03
    31   1    -0.08  -0.02  -0.19     0.08  -0.23  -0.17    -0.14   0.20   0.04
    32   6     0.03  -0.02  -0.06    -0.01  -0.04  -0.01    -0.01  -0.06  -0.16
    33   1     0.12   0.01  -0.16    -0.09  -0.12   0.04     0.10   0.07  -0.21
    34   1     0.10  -0.05   0.05    -0.05   0.05  -0.07     0.06  -0.16  -0.06
    35   6     0.00   0.07   0.03     0.01  -0.03  -0.02     0.10  -0.05  -0.06
    36   1     0.03   0.05   0.01     0.01  -0.02  -0.01     0.16  -0.09  -0.11
    37   1     0.01   0.13   0.05     0.01  -0.04  -0.02     0.12   0.08  -0.02
    38   1     0.02   0.05   0.01     0.01  -0.03  -0.02     0.16  -0.07  -0.11
    39   6    -0.06   0.01  -0.07    -0.02  -0.04  -0.07    -0.04   0.02  -0.04
    40   1    -0.08   0.00  -0.11    -0.01  -0.04  -0.06    -0.10  -0.05  -0.12
    41   1    -0.07   0.12  -0.02    -0.01  -0.05  -0.07    -0.09   0.13   0.04
    42   1    -0.10  -0.03  -0.15    -0.03  -0.04  -0.07    -0.11   0.02  -0.06
    43   9     0.03  -0.02   0.11     0.03   0.06   0.09     0.09  -0.10  -0.03
    44   9     0.05  -0.19  -0.13    -0.02   0.02   0.02    -0.12   0.00   0.04
                     28                     29                     30
                      A                      A                      A
 Frequencies --    401.0589               419.8638               439.4693
 Red. masses --      7.3381                 7.5291                 6.8177
 Frc consts  --      0.6954                 0.7820                 0.7758
 IR Inten    --      6.4616                28.7283                15.1957
  Atom  AN      X      Y      Z        X      Y      Z        X      Y      Z
     1  23    -0.03   0.02  -0.04     0.11   0.00  -0.04    -0.05  -0.01   0.00
     2   8     0.06  -0.02   0.02    -0.09  -0.04   0.00     0.05  -0.02   0.01
     3   8    -0.01  -0.03  -0.03    -0.15   0.26   0.00    -0.05   0.00  -0.01
     4   8    -0.01   0.10   0.28     0.05  -0.04   0.00     0.15   0.31   0.01
     5   8    -0.05   0.07  -0.04    -0.05   0.08   0.02     0.00  -0.01  -0.02
     6   7     0.16  -0.07  -0.06    -0.09  -0.11  -0.04     0.11  -0.02  -0.08
     7   6     0.00  -0.06   0.12     0.13  -0.04   0.22    -0.03  -0.03   0.05
     8   6    -0.03  -0.02   0.09     0.07  -0.13   0.13    -0.03  -0.03   0.05
     9   6    -0.13   0.05  -0.01    -0.05   0.00  -0.15    -0.06   0.01  -0.01
    10   1    -0.15   0.11  -0.06    -0.08   0.08  -0.24    -0.08   0.01  -0.06
    11   6    -0.11   0.05  -0.02    -0.10   0.01  -0.19    -0.02   0.01  -0.01
    12   6    -0.09   0.06   0.00    -0.06   0.07  -0.13     0.00   0.01   0.00
    13   1    -0.15   0.05  -0.02    -0.02   0.13  -0.24    -0.02   0.01   0.00
    14   6     0.01  -0.03   0.05     0.07  -0.04   0.17     0.02   0.00   0.01
    15   6     0.06  -0.05  -0.01     0.01  -0.09   0.09     0.06   0.02  -0.03
    16   1     0.07  -0.10  -0.02     0.11   0.04   0.02     0.05   0.02  -0.02
    17   1    -0.01  -0.05  -0.01     0.00  -0.16   0.19     0.04   0.00   0.00
    18   6     0.15   0.00  -0.15    -0.07   0.00   0.01     0.11  -0.03  -0.05
    19   1     0.22   0.00  -0.14     0.03   0.05  -0.06     0.17  -0.03  -0.06
    20   1     0.06   0.03  -0.16    -0.09   0.06   0.09     0.18  -0.02  -0.01
    21   6     0.10   0.11  -0.11    -0.05  -0.02   0.01    -0.08  -0.02   0.10
    22   6    -0.16  -0.10   0.11     0.00   0.02  -0.05     0.05   0.04  -0.01
    23   1    -0.27  -0.13   0.16     0.03   0.03  -0.06     0.02   0.10  -0.08
    24   6    -0.12  -0.13   0.08    -0.01   0.06  -0.04     0.15   0.01  -0.10
    25   6    -0.07  -0.08   0.01     0.01   0.01  -0.01     0.12   0.05  -0.15
    26   1    -0.09  -0.07   0.03     0.02  -0.04  -0.03     0.27   0.23  -0.26
    27   6     0.07   0.02  -0.11     0.00  -0.01   0.04    -0.19  -0.16   0.09
    28   6     0.09   0.13  -0.11     0.01  -0.05   0.03    -0.23  -0.04   0.14
    29   6     0.05   0.01   0.07    -0.01  -0.01  -0.10     0.00   0.02   0.03
    30   1    -0.14   0.00   0.04     0.11   0.11  -0.18    -0.19  -0.01   0.03
    31   1     0.10   0.08   0.22    -0.05  -0.08  -0.22     0.05   0.10   0.19
    32   6     0.01  -0.01   0.00     0.02   0.07   0.03    -0.02  -0.01  -0.03
    33   1     0.00  -0.09  -0.04     0.07   0.07  -0.03    -0.04  -0.02   0.00
    34   1     0.01   0.01   0.01     0.06   0.08   0.09    -0.03  -0.01  -0.05
    35   6    -0.01   0.04   0.02     0.07  -0.06  -0.05     0.01   0.01   0.00
    36   1     0.02  -0.02  -0.05     0.12  -0.19  -0.20     0.04  -0.03  -0.05
    37   1    -0.01   0.10   0.01     0.05   0.05  -0.09     0.01   0.08   0.01
    38   1    -0.01   0.08   0.01     0.05   0.08  -0.07     0.02   0.03  -0.01
    39   6    -0.04  -0.04  -0.08     0.00   0.02   0.02    -0.04  -0.05  -0.08
    40   1    -0.09  -0.14  -0.16     0.01   0.03   0.02     0.03   0.15   0.00
    41   1    -0.08  -0.01  -0.03     0.01   0.03   0.02     0.03   0.02  -0.13
    42   1    -0.09   0.00  -0.01     0.00   0.00  -0.01     0.00  -0.16  -0.29
    43   9     0.13   0.05  -0.02    -0.05   0.05   0.03     0.01  -0.12   0.08
    44   9     0.01  -0.09   0.01    -0.05  -0.08   0.12    -0.01   0.00   0.02
                     31                     32                     33
                      A                      A                      A
 Frequencies --    441.1053               448.3660               521.7808
 Red. masses --      6.6950                 6.5672                 4.2416
 Frc consts  --      0.7675                 0.7778                 0.6804
 IR Inten    --     46.4315                 1.5826                 1.3810
  Atom  AN      X      Y      Z        X      Y      Z        X      Y      Z
     1  23     0.10   0.02  -0.02    -0.02  -0.01  -0.06     0.00  -0.01   0.01
     2   8    -0.08  -0.01   0.03    -0.01  -0.06   0.00     0.00   0.00   0.00
     3   8     0.05   0.09   0.18     0.03   0.14   0.28    -0.02   0.04   0.00
     4   8    -0.03  -0.12  -0.03     0.03   0.10   0.09     0.00   0.01   0.00
     5   8    -0.02  -0.06  -0.01     0.02   0.19  -0.03     0.00  -0.05   0.00
     6   7     0.19   0.07  -0.02    -0.07  -0.21  -0.02    -0.03   0.09   0.05
     7   6    -0.01   0.08  -0.02     0.00   0.14  -0.16     0.09  -0.04  -0.08
     8   6    -0.06  -0.03  -0.05    -0.02   0.04  -0.21     0.08  -0.04  -0.14
     9   6    -0.08  -0.07   0.03     0.09  -0.08   0.10    -0.06   0.09   0.12
    10   1    -0.06   0.00   0.05     0.17  -0.12   0.30     0.05   0.25   0.31
    11   6    -0.10  -0.12   0.08     0.02  -0.09   0.08    -0.12   0.14   0.08
    12   6    -0.03   0.01   0.10     0.00   0.00   0.04    -0.13   0.12   0.05
    13   1     0.04   0.01   0.12     0.07   0.02   0.04    -0.33   0.07   0.05
    14   6    -0.03   0.09  -0.04    -0.02   0.05  -0.05     0.08  -0.09   0.04
    15   6     0.03   0.07  -0.06    -0.03  -0.15   0.09     0.09  -0.04   0.02
    16   1    -0.02  -0.06  -0.04    -0.07   0.01   0.15     0.13   0.04   0.01
    17   1    -0.04   0.13  -0.14     0.00  -0.26   0.25     0.20  -0.01  -0.01
    18   6     0.15  -0.02  -0.13    -0.03   0.00   0.04    -0.05   0.02  -0.03
    19   1     0.09  -0.05  -0.09     0.13   0.07  -0.07    -0.15  -0.01   0.01
    20   1     0.18  -0.05  -0.15    -0.12   0.11   0.14    -0.04  -0.02  -0.08
    21   6     0.03  -0.04  -0.06    -0.02   0.03   0.03     0.00   0.01  -0.05
    22   6    -0.05  -0.04   0.01     0.00   0.02  -0.02     0.02   0.03   0.08
    23   1     0.00  -0.10   0.08    -0.05   0.06  -0.06     0.07  -0.03   0.14
    24   6    -0.07   0.09   0.01     0.01  -0.05  -0.03     0.04   0.04   0.08
    25   6     0.01   0.11  -0.04    -0.01  -0.05  -0.02     0.04   0.04   0.06
    26   1     0.13   0.17  -0.14    -0.04  -0.08   0.01     0.04   0.16   0.07
    27   6    -0.10   0.01   0.05     0.03  -0.02  -0.03    -0.05  -0.04  -0.03
    28   6    -0.06  -0.10   0.02     0.01   0.05   0.01    -0.03  -0.02  -0.04
    29   6     0.06   0.02   0.11     0.00  -0.02  -0.03    -0.01   0.03  -0.03
    30   1    -0.14  -0.08   0.16     0.05   0.12  -0.14     0.08  -0.01   0.01
    31   1     0.13   0.11   0.31    -0.03  -0.08  -0.11    -0.03   0.02  -0.10
    32   6    -0.02  -0.05  -0.02     0.00   0.05   0.05     0.00   0.03  -0.04
    33   1    -0.08  -0.10   0.02    -0.02   0.01   0.05     0.01   0.06  -0.04
    34   1    -0.05  -0.01  -0.08    -0.02   0.06   0.02     0.01   0.04  -0.03
    35   6     0.06  -0.03  -0.04     0.04  -0.06  -0.04    -0.01  -0.19  -0.08
    36   1     0.12  -0.03  -0.04     0.03   0.06   0.10    -0.11  -0.08   0.04
    37   1     0.10   0.09   0.04     0.07  -0.10   0.03    -0.03  -0.38  -0.12
    38   1     0.15  -0.11  -0.10     0.10  -0.22  -0.06    -0.08  -0.19  -0.02
    39   6     0.05   0.00   0.06    -0.03  -0.01  -0.05     0.01  -0.08  -0.05
    40   1     0.12   0.10   0.16    -0.06  -0.05  -0.10     0.05  -0.03   0.01
    41   1     0.10  -0.10  -0.03    -0.05   0.05  -0.01     0.04  -0.13  -0.10
    42   1     0.12   0.00   0.06    -0.07  -0.01  -0.07     0.05  -0.08  -0.04
    43   9    -0.11   0.10  -0.04     0.05  -0.03   0.04    -0.01  -0.01  -0.02
    44   9    -0.16  -0.11  -0.03    -0.07  -0.01  -0.05     0.07  -0.02  -0.03
                     34                     35                     36
                      A                      A                      A
 Frequencies --    525.3298               546.6642               553.6716
 Red. masses --      3.9906                 3.5195                 3.5465
 Frc consts  --      0.6489                 0.6197                 0.6406
 IR Inten    --      0.7228                 0.4009                 1.8539
  Atom  AN      X      Y      Z        X      Y      Z        X      Y      Z
     1  23     0.01   0.00  -0.01     0.00   0.01   0.00     0.01   0.00   0.00
     2   8     0.00  -0.01   0.00     0.00   0.01   0.01     0.00   0.00   0.01
     3   8     0.01  -0.01  -0.01     0.00  -0.03  -0.02     0.00  -0.02  -0.02
     4   8     0.00   0.02   0.04     0.00  -0.03  -0.02     0.01   0.03   0.02
     5   8     0.00   0.04   0.01    -0.01  -0.02  -0.01    -0.02  -0.08   0.00
     6   7    -0.04   0.00   0.04    -0.03   0.03   0.02     0.06   0.00  -0.02
     7   6    -0.03   0.03   0.03    -0.03   0.00   0.02    -0.02   0.00   0.02
     8   6    -0.04   0.04   0.03    -0.12   0.11  -0.14    -0.09   0.06  -0.10
     9   6     0.05  -0.05  -0.04     0.03  -0.06   0.07    -0.01  -0.04   0.05
    10   1     0.03  -0.14  -0.07     0.09  -0.23   0.25     0.04  -0.13   0.17
    11   6     0.06  -0.06  -0.05     0.02  -0.03  -0.04    -0.01  -0.02  -0.02
    12   6     0.05  -0.05  -0.05    -0.01   0.01  -0.11    -0.01   0.03  -0.06
    13   1     0.14  -0.01  -0.08    -0.05   0.11  -0.32    -0.05   0.10  -0.20
    14   6    -0.03   0.02   0.03     0.09  -0.09   0.21     0.08  -0.05   0.14
    15   6    -0.05  -0.01   0.02     0.04  -0.05   0.01     0.06  -0.02   0.00
    16   1    -0.04  -0.09  -0.01     0.20  -0.16  -0.15     0.15  -0.08  -0.09
    17   1    -0.13   0.02  -0.03    -0.10   0.03  -0.10    -0.02   0.01  -0.03
    18   6    -0.05   0.05  -0.06    -0.02   0.01  -0.05     0.05  -0.03   0.06
    19   1    -0.06   0.14  -0.20    -0.08  -0.08   0.07     0.09   0.06  -0.06
    20   1    -0.10   0.15   0.05    -0.09  -0.08  -0.19     0.18   0.05   0.23
    21   6    -0.01   0.00  -0.09     0.09   0.08  -0.09    -0.13  -0.14   0.15
    22   6     0.06   0.07   0.16    -0.06  -0.04   0.01     0.08   0.03  -0.05
    23   1     0.19  -0.03   0.25    -0.18  -0.11   0.09     0.26   0.15  -0.19
    24   6     0.06   0.08   0.17    -0.01  -0.02  -0.02    -0.01   0.02   0.01
    25   6     0.07   0.08   0.12     0.06   0.00  -0.03    -0.09  -0.01   0.03
    26   1     0.03   0.32   0.17     0.18   0.02  -0.14    -0.26  -0.08   0.17
    27   6    -0.08  -0.07  -0.11    -0.06  -0.06   0.13     0.10   0.11  -0.16
    28   6    -0.07  -0.03  -0.09     0.03   0.00   0.02    -0.04  -0.01   0.00
    29   6     0.01  -0.04   0.00    -0.02   0.01  -0.04     0.03   0.07   0.01
    30   1     0.17   0.00  -0.01     0.04   0.00  -0.02    -0.13   0.01   0.04
    31   1    -0.03  -0.13  -0.12    -0.03   0.00  -0.08     0.06   0.19   0.12
    32   6     0.01  -0.02   0.04     0.00   0.02  -0.04    -0.01   0.05  -0.07
    33   1     0.04  -0.02   0.00     0.02   0.04  -0.04    -0.08   0.02   0.01
    34   1     0.03  -0.03   0.06     0.01   0.02  -0.02    -0.05   0.12  -0.13
    35   6     0.00   0.09   0.04    -0.01   0.09   0.05    -0.01   0.04   0.02
    36   1     0.04   0.08   0.02     0.00   0.22   0.20     0.01   0.12   0.12
    37   1     0.02   0.16   0.07     0.04   0.10   0.16     0.03   0.06   0.10
    38   1     0.04   0.06   0.01     0.09  -0.13   0.00     0.07  -0.10  -0.01
    39   6     0.02  -0.18  -0.13     0.00   0.06   0.05     0.00  -0.04  -0.03
    40   1     0.09  -0.13  -0.03     0.03   0.18   0.09    -0.05  -0.23  -0.10
    41   1     0.07  -0.32  -0.21     0.03   0.14   0.03    -0.06  -0.14   0.01
    42   1     0.09  -0.15  -0.05     0.01  -0.02  -0.11    -0.02   0.08   0.19
    43   9    -0.04   0.00  -0.05     0.02  -0.01   0.01    -0.03   0.02  -0.02
    44   9    -0.03   0.00   0.01    -0.03  -0.01   0.01    -0.03  -0.02   0.01
                     37                     38                     39
                      A                      A                      A
 Frequencies --    578.0439               587.2025               598.2383
 Red. masses --      5.4035                 4.4101                 3.9526
 Frc consts  --      1.0638                 0.8959                 0.8335
 IR Inten    --      6.0465                 3.0015                 6.4552
  Atom  AN      X      Y      Z        X      Y      Z        X      Y      Z
     1  23     0.00   0.03   0.00     0.04  -0.01  -0.01    -0.03  -0.02   0.02
     2   8     0.00   0.03   0.01     0.00  -0.02  -0.01     0.00  -0.01  -0.01
     3   8    -0.02  -0.10   0.03     0.04  -0.03  -0.05    -0.01   0.05  -0.01
     4   8     0.09  -0.03  -0.01    -0.05   0.04   0.06     0.02   0.00  -0.02
     5   8     0.00   0.17  -0.06     0.02   0.07   0.03     0.03   0.12   0.00
     6   7     0.00   0.02  -0.06    -0.03   0.05  -0.02     0.01   0.10  -0.06
     7   6    -0.10  -0.05   0.05    -0.01   0.02   0.03     0.07   0.00  -0.03
     8   6    -0.18  -0.09  -0.04    -0.05  -0.04  -0.04     0.09   0.09  -0.01
     9   6    -0.17  -0.06   0.05    -0.05  -0.03   0.01     0.07   0.06   0.00
    10   1    -0.19  -0.19   0.01    -0.04  -0.04   0.02     0.10   0.17   0.06
    11   6     0.07   0.05   0.05     0.01   0.00   0.01    -0.08  -0.04   0.02
    12   6     0.04   0.08   0.00     0.02   0.09   0.01    -0.04  -0.03   0.00
    13   1    -0.03   0.11  -0.08     0.04   0.13  -0.06    -0.08  -0.04  -0.02
    14   6     0.05   0.04   0.03     0.03   0.06   0.07     0.05  -0.06  -0.03
    15   6     0.02   0.07  -0.06    -0.02   0.08  -0.03     0.12   0.06  -0.09
[...]
 Vibration    15          0.650              1.800              1.905
 Vibration    16          0.653              1.792              1.865
 Vibration    17          0.660              1.772              1.770
 Vibration    18          0.665              1.756              1.704
 Vibration    19          0.669              1.743              1.653
 Vibration    20          0.682              1.705              1.517
 Vibration    21          0.688              1.687              1.457
 Vibration    22          0.692              1.677              1.426
 Vibration    23          0.695              1.668              1.399
 Vibration    24          0.718              1.601              1.226
 Vibration    25          0.725              1.580              1.177
 Vibration    26          0.745              1.525              1.063
 Vibration    27          0.759              1.489              0.996
 Vibration    28          0.767              1.468              0.959
 Vibration    29          0.783              1.427              0.892
 Vibration    30          0.800              1.384              0.828
 Vibration    31          0.801              1.381              0.823
 Vibration    32          0.807              1.364              0.801
 Vibration    33          0.877              1.202              0.606
 Vibration    34          0.880              1.194              0.598
 Vibration    35          0.902              1.147              0.551
 Vibration    36          0.909              1.132              0.537
 Vibration    37          0.935              1.079              0.489
 Vibration    38          0.944              1.059              0.472
 Vibration    39          0.956              1.036              0.453
 Vibration    40          0.972              1.005              0.428
                       Q            Log10(Q)             Ln(Q)
 Total Bot       0.930713-133       -133.031184       -306.315622
 Total V=0       0.505155D+24         23.703425         54.579153
 Vib (Bot)       0.218761-148       -148.660029       -342.302368
 Vib (Bot)    1  0.726337D+01          0.861138          1.982844
 Vib (Bot)    2  0.598524D+01          0.777082          1.789297
 Vib (Bot)    3  0.334446D+01          0.524326          1.207306
 Vib (Bot)    4  0.308625D+01          0.489431          1.126957
 Vib (Bot)    5  0.211292D+01          0.324883          0.748072
 Vib (Bot)    6  0.182829D+01          0.262045          0.603382
 Vib (Bot)    7  0.166053D+01          0.220247          0.507139
 Vib (Bot)    8  0.158916D+01          0.201167          0.463205
 Vib (Bot)    9  0.131967D+01          0.120466          0.277383
 Vib (Bot)   10  0.114091D+01          0.057252          0.131828
 Vib (Bot)   11  0.109660D+01          0.040049          0.092216
 Vib (Bot)   12  0.102251D+01          0.009668          0.022261
 Vib (Bot)   13  0.941799D+00         -0.026042         -0.059964
 Vib (Bot)   14  0.902197D+00         -0.044699         -0.102923
 Vib (Bot)   15  0.870283D+00         -0.060339         -0.138937
 Vib (Bot)   16  0.848904D+00         -0.071142         -0.163809
 Vib (Bot)   17  0.800557D+00         -0.096608         -0.222448
 Vib (Bot)   18  0.767646D+00         -0.114839         -0.264426
 Vib (Bot)   19  0.742658D+00         -0.129211         -0.297520
 Vib (Bot)   20  0.678803D+00         -0.168256         -0.387424
 Vib (Bot)   21  0.651709D+00         -0.185946         -0.428158
 Vib (Bot)   22  0.637766D+00         -0.195338         -0.449783
 Vib (Bot)   23  0.626151D+00         -0.203321         -0.468163
 Vib (Bot)   24  0.551900D+00         -0.258140         -0.594388
 Vib (Bot)   25  0.531625D+00         -0.274394         -0.631817
 Vib (Bot)   26  0.485368D+00         -0.313928         -0.722847
 Vib (Bot)   27  0.458808D+00         -0.338369         -0.779124
 Vib (Bot)   28  0.444070D+00         -0.352549         -0.811773
 Vib (Bot)   29  0.418249D+00         -0.378565         -0.871678
 Vib (Bot)   30  0.393530D+00         -0.405023         -0.932599
 Vib (Bot)   31  0.391560D+00         -0.407202         -0.937618
 Vib (Bot)   32  0.382978D+00         -0.416826         -0.959777
 Vib (Bot)   33  0.308846D+00         -0.510257         -1.174911
 Vib (Bot)   34  0.305758D+00         -0.514623         -1.184962
 Vib (Bot)   35  0.287991D+00         -0.540620         -1.244825
 Vib (Bot)   36  0.282440D+00         -0.549074         -1.264290
 Vib (Bot)   37  0.264133D+00         -0.578177         -1.331302
 Vib (Bot)   38  0.257631D+00         -0.589002         -1.356227
 Vib (Bot)   39  0.250051D+00         -0.601971         -1.386089
 Vib (Bot)   40  0.240492D+00         -0.618899         -1.425067
 Vib (V=0)       0.118735D+09          8.074580         18.592407
 Vib (V=0)    1  0.778056D+01          0.891011          2.051628
 Vib (V=0)    2  0.650609D+01          0.813320          1.872739
 Vib (V=0)    3  0.388163D+01          0.589014          1.356255
 Vib (V=0)    4  0.362649D+01          0.559487          1.288266
 Vib (V=0)    5  0.267128D+01          0.426719          0.982556
 Vib (V=0)    6  0.239543D+01          0.379383          0.873562
 Vib (V=0)    7  0.223418D+01          0.349118          0.803873
 Vib (V=0)    8  0.216596D+01          0.335651          0.772864
 Vib (V=0)    9  0.191122D+01          0.281310          0.647740
 Vib (V=0)   10  0.174566D+01          0.241961          0.557135
 Vib (V=0)   11  0.170521D+01          0.231778          0.533689
 Vib (V=0)   12  0.163821D+01          0.214370          0.493606
 Vib (V=0)   13  0.156630D+01          0.194874          0.448713
 Vib (V=0)   14  0.153148D+01          0.185112          0.426237
 Vib (V=0)   15  0.150369D+01          0.177158          0.407922
 Vib (V=0)   16  0.148521D+01          0.171788          0.395556
 Vib (V=0)   17  0.144387D+01          0.159528          0.367327
 Vib (V=0)   18  0.141612D+01          0.151101          0.347923
 Vib (V=0)   19  0.139529D+01          0.144664          0.333101
 Vib (V=0)   20  0.134307D+01          0.128100          0.294961
 Vib (V=0)   21  0.132142D+01          0.121040          0.278704
 Vib (V=0)   22  0.131040D+01          0.117403          0.270331
 Vib (V=0)   23  0.130129D+01          0.114374          0.263356
 Vib (V=0)   24  0.124471D+01          0.095068          0.218903
 Vib (V=0)   25  0.122981D+01          0.089839          0.206861
 Vib (V=0)   26  0.119684D+01          0.078035          0.179683
 Vib (V=0)   27  0.117860D+01          0.071368          0.164331
 Vib (V=0)   28  0.116873D+01          0.067714          0.155917
 Vib (V=0)   29  0.115187D+01          0.061403          0.141385
 Vib (V=0)   30  0.113629D+01          0.055489          0.127769
 Vib (V=0)   31  0.113507D+01          0.055024          0.126698
 Vib (V=0)   32  0.112982D+01          0.053009          0.122058
 Vib (V=0)   33  0.108770D+01          0.036507          0.084061
 Vib (V=0)   34  0.108608D+01          0.035861          0.082573
 Vib (V=0)   35  0.107701D+01          0.032219          0.074187
 Vib (V=0)   36  0.107426D+01          0.031109          0.071630
 Vib (V=0)   37  0.106548D+01          0.027545          0.063424
 Vib (V=0)   38  0.106247D+01          0.026317          0.060597
 Vib (V=0)   39  0.105904D+01          0.024912          0.057363
 Vib (V=0)   40  0.105483D+01          0.023183          0.053380
 Electronic      0.100000D+01          0.000000          0.000000
 Translational   0.315701D+09          8.499276         19.570307
 Rotational      0.134762D+08          7.129569         16.416439
 -------------------------------------------------------------------
 Center     Atomic                   Forces (Hartrees/Bohr)
 Number     Number              X              Y              Z
 -------------------------------------------------------------------
      1       23           0.000002287   -0.000007032   -0.000009108
      2        8          -0.000006236    0.000004004   -0.000007577
      3        8          -0.000010262   -0.000011370   -0.000000323
      4        8           0.000000858   -0.000015472   -0.000000535
      5        8           0.000001894    0.000011758   -0.000002281
      6        7           0.000000027   -0.000002606   -0.000007351
      7        6           0.000008533    0.000021135   -0.000002306
      8        6          -0.000004244   -0.000001374   -0.000008874
      9        6          -0.000001687   -0.000004502   -0.000007899
     10        1          -0.000002225   -0.000000975   -0.000009082
     11        6          -0.000002197   -0.000000124   -0.000000997
     12        6           0.000006809    0.000000480   -0.000002532
     13        1           0.000003246   -0.000003736    0.000002268
     14        6          -0.000003608   -0.000013797   -0.000004777
     15        6           0.000001295    0.000000697    0.000006107
     16        1           0.000001659    0.000000992    0.000004021
     17        1           0.000005323   -0.000003629    0.000004578
     18        6          -0.000000908   -0.000000076    0.000009907
     19        1           0.000006561   -0.000005362    0.000004985
     20        1           0.000005508   -0.000004086    0.000001265
     21        6           0.000007034   -0.000010285    0.000002331
     22        6          -0.000002277    0.000006599    0.000005252
     23        1           0.000005667   -0.000000406    0.000012753
     24        6           0.000001931    0.000006645    0.000020501
     25        6          -0.000000342    0.000001541    0.000007409
     26        1          -0.000003832    0.000010503    0.000011709
     27        6          -0.000003340    0.000007257    0.000002815
     28        6          -0.000006216    0.000028870    0.000010592
     29        6           0.000012017    0.000000671    0.000006255
     30        1           0.000006003   -0.000008476   -0.000002182
     31        1           0.000003063   -0.000007938   -0.000005148
     32        6           0.000002653   -0.000022786   -0.000006822
     33        1           0.000004387   -0.000008568   -0.000007814
     34        1           0.000005378   -0.000006367   -0.000003688
     35        6          -0.000004705   -0.000001353   -0.000012478
     36        1          -0.000004723   -0.000000041   -0.000012332
     37        1          -0.000006453    0.000001294   -0.000012697
     38        1          -0.000007036    0.000003473   -0.000008849
     39        6          -0.000005699    0.000006537    0.000000898
     40        1          -0.000007408    0.000008891    0.000003173
     41        1          -0.000007006    0.000011412    0.000005750
     42        1          -0.000006407    0.000008083    0.000001979
     43        9           0.000003288    0.000004770    0.000014628
     44        9           0.000001389   -0.000005251   -0.000003526
 -------------------------------------------------------------------
 Cartesian Forces:  Max     0.000028870 RMS     0.000007499
 FormGI is forming the generalized inverse of G from B-inverse, IUseBI=4.
 Leave Link  716 at Fri Jun 13 22:59:30 2014, MaxMem=   536870912 cpu:         0.5
 (Enter /global/software/gaussian/g09.d01/l718.exe)

 **********************************************************************

             Generation of the Franck-Condon spectrum

 **********************************************************************


     ==================================================
               Information on the Simulation
     ==================================================

 Type of Spectroscopy: ONE-PHOTON ABSORPTION         
 Model applied to the transition: ADIABATIC HESSIAN
 Approx. of the electronic transition dipole moment: FCHT
 Temperature effect are not taken into account.

     ==================================================
                  Treatment of Input Data
     ==================================================
 Data for initial state taken from current calculation.
 Normal modes recovered from file.

 Data for   final state taken from checkpoint file "cisa_root3.chk"
 Normal modes recovered from file.


 Using excited electronic state number  3.

 Initial state structure is set in Eckart orientation.
 Final state structure is superposed to it.

              New orientation in initial state              
 ---------------------------------------------------------------------
 Center     Atomic                     Coordinates (Angstroms)
 Number     Number                        X           Y           Z
 ---------------------------------------------------------------------
      1         23                    0.030289   -1.906474    0.026761
      2          8                    0.079930   -3.300163   -0.757243
      3          8                    1.274606   -0.940194   -0.821248
      4          8                   -1.655212   -1.374186   -0.295102
      5          8                    0.484327   -2.432346    1.658468
      6          7                   -0.023278    0.191005    1.410251
      7          6                    2.172396    0.081097   -0.647607
      8          6                    3.444940   -0.059209   -1.238485
      9          6                    4.379208    0.961421   -1.078354
     10          1                    5.362879    0.881200   -1.521932
     11          6                    4.056986    2.095091   -0.341650
     12          6                    2.809076    2.234559    0.246008
     13          1                    2.587546    3.128473    0.814720
     14          6                    1.850629    1.229339    0.094144
     15          6                    0.468725    1.406393    0.675069
     16          1                   -0.257057    1.587585   -0.125314
     17          1                    0.460709    2.283377    1.341678
     18          6                   -1.427664    0.427890    1.899934
     19          1                   -1.443085    1.284654    2.592145
     20          1                   -1.729288   -0.467550    2.455076
     21          6                   -2.397320    0.661872    0.769407
     22          6                   -3.252650    1.765468    0.765364
     23          1                   -3.211809    2.503704    1.555855
     24          6                   -4.170814    1.917543   -0.262500
     25          6                   -4.252952    0.988688   -1.293886
     26          1                   -4.980124    1.138173   -2.081220
     27          6                   -3.408256   -0.119108   -1.312736
     28          6                   -2.474023   -0.278571   -0.269289
     29          6                    0.873559   -0.194536    2.542490
     30          1                    0.734847    0.453336    3.421843
     31          1                    1.900804   -0.093821    2.184834
     32          6                    0.591152   -1.663915    2.885721
     33          1                    1.404676   -2.084107    3.486213
     34          1                   -0.345528   -1.772544    3.445135
     35          6                    3.746289   -1.315107   -2.021316
     36          1                    3.672004   -2.196420   -1.373842
     37          1                    4.749417   -1.274905   -2.453261
     38          1                    3.013413   -1.446977   -2.824295
     39          6                   -3.454827   -1.155953   -2.409654
     40          1                   -2.500854   -1.184895   -2.948901
     41          1                   -4.256715   -0.938645   -3.119722
     42          1                   -3.610783   -2.152482   -1.983195
     43          9                   -5.008560    3.002652   -0.263645
     44          9                    4.989021    3.088231   -0.188522
 ---------------------------------------------------------------------

 ------------------------------------------------------------------------------
          WARNING: SIGNIFICANT ANGULAR MOMENTUM ALONG THE PATH
           Ax =-0.52213D+03  Ay= 0.28068D+03  Az=-0.47241D+03
 ------------------------------------------------------------------------------
               New orientation in final state               
 ---------------------------------------------------------------------
 Center     Atomic                     Coordinates (Angstroms)
 Number     Number                        X           Y           Z
 ---------------------------------------------------------------------
      1         23                    0.154805   -1.807727    0.209913
      2          8                    0.770649   -2.922643   -0.776080
      3          8                    0.657594   -0.301078   -1.110842
      4          8                   -1.608425   -1.537052   -0.134559
      5          8                    0.547465   -2.358047    1.853966
      6          7                   -0.021797    0.214687    1.607932
      7          6                    1.747991    0.347984   -0.845939
      8          6                    2.935730    0.168323   -1.664906
      9          6                    4.085633    0.861354   -1.348267
     10          1                    4.992311    0.735313   -1.925123
     11          6                    4.098162    1.737820   -0.258097
     12          6                    2.965536    1.948357    0.547110
     13          1                    3.031381    2.656608    1.363224
     14          6                    1.803161    1.266308    0.273278
     15          6                    0.509404    1.489559    1.009658
     16          1                   -0.248374    1.822419    0.293043
     17          1                    0.628024    2.261828    1.783847
     18          6                   -1.488104    0.384354    1.954632
     19          1                   -1.607550    1.229063    2.650724
     20          1                   -1.793213   -0.531973    2.469802
     21          6                   -2.359213    0.583099    0.739969
     22          6                   -3.170591    1.713597    0.607311
     23          1                   -3.165769    2.494903    1.357113
     24          6                   -4.004988    1.832289   -0.493617
     25          6                   -4.045717    0.842965   -1.469622
     26          1                   -4.707079    0.966967   -2.317478
     27          6                   -3.242012   -0.290011   -1.358875
     28          6                   -2.390163   -0.420434   -0.244036
     29          6                    0.762561   -0.175095    2.828246
     30          1                    0.524148    0.466260    3.690350
     31          1                    1.819791   -0.060338    2.573449
     32          6                    0.481152   -1.656366    3.116225
     33          1                    1.230441   -2.061891    3.805630
     34          1                   -0.510475   -1.794631    3.563625
     35          6                    2.829063   -0.812303   -2.794241
     36          1                    2.497516   -1.784041   -2.407272
     37          1                    3.779409   -0.923153   -3.321042
     38          1                    2.056066   -0.483867   -3.500135
     39          6                   -3.237946   -1.388313   -2.395044
     40          1                   -2.237532   -1.489359   -2.831131
     41          1                   -3.958177   -1.181852   -3.191218
     42          1                   -3.480138   -2.349591   -1.929222
     43          9                   -4.801506    2.944136   -0.621933
     44          9                    5.240831    2.413004    0.036588
 ---------------------------------------------------------------------
 ERROR:   3 imaginary frequencies found in final state.
 Error termination via Lnk1e in /global/software/gaussian/g09.d01/l718.exe at Fri Jun 13 22:59:30 2014.
 Job cpu time:       0 days  0 hours  0 minutes  1.8 seconds.
 File lengths (MBytes):  RWF=     13 Int=      0 D2E=      0 Chk=     65 Scr=      1
